 Entering Gaussian System, Link 0=g16
 Initial command:
 /lustre/home/acct-phazyx/phazyx-user3/software/g16/l1.exe "/lustre/home/acct-phazyx/phazyx-user3/tmp/Gau-1508297.inp" -scrdir="/lustre/home/acct-phazyx/phazyx-user3/tmp/"
 Entering Link 1 = /lustre/home/acct-phazyx/phazyx-user3/software/g16/l1.exe PID=   1508298.
  
 Copyright (c) 1988,1990,1992,1993,1995,1998,2003,2009,2016,
            Gaussian, Inc.  All Rights Reserved.
  
 This is part of the Gaussian(R) 16 program.  It is based on
 the Gaussian(R) 09 system (copyright 2009, Gaussian, Inc.),
 the Gaussian(R) 03 system (copyright 2003, Gaussian, Inc.),
 the Gaussian(R) 98 system (copyright 1998, Gaussian, Inc.),
 the Gaussian(R) 94 system (copyright 1995, Gaussian, Inc.),
 the Gaussian 92(TM) system (copyright 1992, Gaussian, Inc.),
 the Gaussian 90(TM) system (copyright 1990, Gaussian, Inc.),
 the Gaussian 88(TM) system (copyright 1988, Gaussian, Inc.),
 the Gaussian 86(TM) system (copyright 1986, Carnegie Mellon
 University), and the Gaussian 82(TM) system (copyright 1983,
 Carnegie Mellon University). Gaussian is a federally registered
 trademark of Gaussian, Inc.
  
 This software contains proprietary and confidential information,
 including trade secrets, belonging to Gaussian, Inc.
  
 This software is provided under written license and may be
 used, copied, transmitted, or stored only in accord with that
 written license.
  
 The following legend is applicable only to US Government
 contracts under FAR:
  
                    RESTRICTED RIGHTS LEGEND
  
 Use, reproduction and disclosure by the US Government is
 subject to restrictions as set forth in subparagraphs (a)
 and (c) of the Commercial Computer Software - Restricted
 Rights clause in FAR 52.227-19.
  
 Gaussian, Inc.
 340 Quinnipiac St., Bldg. 40, Wallingford CT 06492
  
  
 ---------------------------------------------------------------
 Warning -- This program may not be used in any manner that
 competes with the business of Gaussian, Inc. or will provide
 assistance to any competitor of Gaussian, Inc.  The licensee
 of this program is prohibited from giving any competitor of
 Gaussian, Inc. access to this program.  By using this program,
 the user acknowledges that Gaussian, Inc. is engaged in the
 business of creating and licensing software in the field of
 computational chemistry and represents and warrants to the
 licensee that it is not a competitor of Gaussian, Inc. and that
 it will not use this program in any manner prohibited above.
 ---------------------------------------------------------------
  

 Cite this work as:
 Gaussian 16, Revision A.03,
 M. J. Frisch, G. W. Trucks, H. B. Schlegel, G. E. Scuseria, 
 M. A. Robb, J. R. Cheeseman, G. Scalmani, V. Barone, 
 G. A. Petersson, H. Nakatsuji, X. Li, M. Caricato, A. V. Marenich, 
 J. Bloino, B. G. Janesko, R. Gomperts, B. Mennucci, H. P. Hratchian, 
 J. V. Ortiz, A. F. Izmaylov, J. L. Sonnenberg, D. Williams-Young, 
 F. Ding, F. Lipparini, F. Egidi, J. Goings, B. Peng, A. Petrone, 
 T. Henderson, D. Ranasinghe, V. G. Zakrzewski, J. Gao, N. Rega, 
 G. Zheng, W. Liang, M. Hada, M. Ehara, K. Toyota, R. Fukuda, 
 J. Hasegawa, M. Ishida, T. Nakajima, Y. Honda, O. Kitao, H. Nakai, 
 T. Vreven, K. Throssell, J. A. Montgomery, Jr., J. E. Peralta, 
 F. Ogliaro, M. J. Bearpark, J. J. Heyd, E. N. Brothers, K. N. Kudin, 
 V. N. Staroverov, T. A. Keith, R. Kobayashi, J. Normand, 
 K. Raghavachari, A. P. Rendell, J. C. Burant, S. S. Iyengar, 
 J. Tomasi, M. Cossi, J. M. Millam, M. Klene, C. Adamo, R. Cammi, 
 J. W. Ochterski, R. L. Martin, K. Morokuma, O. Farkas, 
 J. B. Foresman, and D. J. Fox, Gaussian, Inc., Wallingford CT, 2016.
 
 ******************************************
 Gaussian 16:  ES64L-G16RevA.03 25-Dec-2016
                29-Jun-2024 
 ******************************************
 %nprocshared=40
 Will use up to   40 processors via shared memory.
 %mem=120GB
 ----------------------------------------------------------------------
 # IRC=(calcfc,maxpoints=70,stepsize=5,lqa) B3LYP/6-311g(d,p) em=gd3bj 
 scrf=(solvent=diethylether) nosymm
 ----------------------------------------------------------------------
 1/10=4,18=10,26=3,38=1,39=5,42=70,44=3,45=2,172=1/1,23;
 2/12=2,15=1,17=6,18=5,29=1,40=1/2;
 3/5=4,6=6,7=101,11=2,25=1,30=1,70=2201,71=2,72=8,74=-5,124=41,140=1/1,2,3;
 4//1;
 5/5=2,38=5,53=8/2;
 8/6=4,10=90,11=11/1;
 11/6=1,8=1,9=11,15=111,16=1,31=1/1,2,10;
 10/6=1,13=1,31=1/2;
 6/7=2,8=2,9=2,10=2,28=1/1;
 7/10=1,18=20,25=1,30=1/1,2,3,16;
 1/10=4,18=10,26=3,39=5,42=70,44=3,45=2/23(2);
 2/15=1,29=1/2;
 99/5=20/99;
 2/15=1,29=1/2;
 3/5=4,6=6,7=101,11=2,25=1,30=1,70=2205,71=2,72=8,74=-5,124=41,140=1/1,2,3;
 4/5=5,16=3,69=1/1;
 5/5=2,38=5,53=8/2;
 8/6=4,10=90,11=11/1;
 11/6=1,8=1,9=11,15=111,16=1,31=1/1,2,10;
 10/6=1,13=1,31=1/2;
 7/10=1,18=20,25=1,30=1/1,2,3,16;
 1/18=10,26=3,39=5,42=70,44=3,45=2/23(-8);
 2/15=1,29=1/2;
 6/7=2,8=2,9=2,10=2,19=2,28=1/1;
 99/5=20,9=1/99;
 --------
 2QRZ_IRC
 --------
 Symbolic Z-matrix:
 Charge = -1 Multiplicity = 1
 C                    0     2.36236  -3.04492  -3.76605 
 O                    0     3.50532  -3.46496  -3.92494 
 N                    0     1.82407  -2.79639  -2.54744 
 C                    0     3.59093  -1.75158  -1.01646 
 O                    0     4.39469  -1.90185  -0.10458 
 H                    0     0.87814  -2.40188  -2.50252 
 N                    0     3.52636  -0.59863  -1.7526 
 C                    0     3.88733   1.43359  -0.27182 
 O                    0     4.64858   2.26457   0.22538 
 H                    0     2.70517  -0.42895  -2.33023 
 N                    0     2.6279    1.21677   0.16946 
 C                    -1    1.97922   2.03153   1.18821 
 C                    0     1.11906   3.189     0.63241 
 O                    0     0.79991   4.10088   1.39901 
 H                    0     2.05558   0.5328   -0.30984 
 H                    0     1.30039   1.43038   1.7805 
 H                    0     2.73958   2.47753   1.82563 
 N                    0     0.68447   3.14912  -0.64975 
 C                    0    -1.62456   4.29268  -0.63687 
 O                    0    -2.27282   5.3051   -0.87646 
 N                    0    -0.19524   0.79518  -5.03306 
 H                    0     0.92436   2.36174  -1.24815 
 H                    0     0.52452   0.60394  -4.30985 
 H                    0    -0.95405   0.08087  -4.97485 
 H                    0     0.18136   0.79367  -5.98784 
 N                    0    -2.09053   3.26014   0.11081 
 C                    0    -3.01598   3.62383   2.4111 
 O                    0    -3.94445   3.68324   3.21321 
 O                    0    -4.23691   1.42279  -0.40853 
 H                    0    -1.50489   2.43722   0.24685 
 H                    0    -4.76489   2.01757  -0.95289 
 N                    0    -1.71136   3.73742   2.70954 
 C                    0    -0.17917   2.83269   4.45753 
 S                    0    -0.90678   1.15808   4.66533 
 H                    0    -1.03018   3.75157   1.96149 
 H                    0     0.64218   2.77874   3.7444 
 H                    0     0.23722   3.09402   5.43183 
 H                    0    -1.14857   0.97334   3.34214 
 C                    0    -0.00431   2.56285   10.14569 
 C                    0    -0.59676   2.10071   8.96533 
 C                    0     1.16148   1.93306   10.59306 
 C                    0    -0.04843   1.0304    8.2603 
 C                    0     1.71321   0.86477   9.88974 
 C                    0     1.10918   0.40415   8.72113 
 H                    0    -1.49661   2.5823    8.59581 
 H                    0     1.63986   2.28492   11.50173 
 H                    0    -0.51969   0.68594   7.34647 
 H                    0     2.61886   0.39141   10.25322 
 H                    0     1.52666  -0.43387   8.17664 
 O                    0    -0.34929   1.45398  -7.78998 
 N                    0    -1.61482  -0.41059  -8.04953 
 H                    0    -2.5608   -0.77488  -8.03292 
 C                    0    -3.34102  -4.04249  -8.61865 
 C                    0    -3.61218  -3.27549  -7.33974 
 N                    0    -3.30215  -3.8657   -6.18534 
 O                    0    -4.10219  -2.12712  -7.4185 
 H                    0    -2.58422  -3.46948  -9.16409 
 H                    0    -4.25489  -3.96487  -9.21294 
 H                    0    -3.42806  -3.39845  -5.28472 
 H                    0    -2.91116  -4.79318  -6.17929 
 C                    0     6.40682   0.84022   3.60803 
 N                    0     5.44758   0.69208   2.66667 
 O                    0     6.45794   0.14938   4.62299 
 H                    0     4.77745  -0.06142   2.76102 
 H                    0     5.39328   1.28036   1.84455 
 P                    0    -0.83112  -0.39974   0.84353 
 P                    0    -0.22074  -0.06707  -1.9576 
 P                    0    -3.60295  -0.85333  -4.2604 
 C                    0     1.17549  -1.09726   2.33333 
 O                    0    -0.14213  -1.46246   1.85632 
 C                    0     1.76199  -2.20462   3.18037 
 O                    0     3.13675  -1.81909   3.40336 
 C                    0     1.10384  -2.33751   4.55914 
 O                    0     1.04991  -3.6989    5.00352 
 C                    0     2.10231  -1.62638   5.49552 
 O                    0     2.02533  -2.09122   6.82639 
 O                    0    -0.87939   0.97722   1.4489 
 O                    0     1.00726   0.63728  -2.54087 
 O                    0    -3.8882    0.12812  -3.14902 
 O                    0    -2.15552  -0.96844   0.35478 
 O                    0    -1.42603   0.87355  -1.75155 
 O                    0    -3.98364  -2.35326  -3.83496 
 O                    0     0.25687  -0.42235  -0.37307 
 O                    0    -0.60931  -1.38621  -2.60047 
 O                    0    -2.43935  -0.67088  -5.1741 
 H                    0     1.73013  -3.01157   6.75778 
 H                    0     0.11183  -1.88379   4.58767 
 H                    0     1.72346  -3.16057   2.6491 
 H                    0     0.21557  -4.08241   4.71883 
 H                    0     1.90008  -0.55151   5.49915 
 H                    0     1.09951  -0.1912    2.93589 
 H                    0     1.84105  -0.92443   1.48846 
 Mg                   0    -3.10756  -0.07285  -1.27245 
 O                    0    -4.10302  -1.91384  -1.17857 
 H                    0    -3.5421   -2.45029  -0.60368 
 H                    0    -4.13049  -2.33372  -2.06749 
 O                    0    -5.05511  -0.98626  -5.26632 
 H                    0    -4.9833   -2.00083  -4.59636 
 H                    0    -4.74762  -1.30953  -6.17602 
 C                    -1   -2.90827  -5.5007   -8.47093 
 H                    0    -2.77729  -5.95198  -9.45574 
 H                    0    -1.95251  -5.59102  -7.94758 
 H                    0    -3.65739  -6.09056  -7.93696 
 C                    -1   -0.56113  -1.31825  -7.63475 
 H                    0    -0.73379  -1.6662   -6.61543 
 H                    0    -0.52879  -2.18357  -8.30038 
 H                    0     0.39384  -0.80217  -7.70031 
 C                    0    -1.44115   0.92364  -8.03833 
 C                    -1   -2.67095   1.75268  -8.31858 
 H                    0    -3.07143   2.11651  -7.36831 
 H                    0    -2.38932   2.61798  -8.91794 
 H                    0    -3.45365   1.18845  -8.82685 
 C                    0     1.43758  -2.75688  -4.93523 
 H                    0     1.92972  -2.03759  -5.59396 
 H                    0     1.29007  -3.67532  -5.50787 
 H                    0     0.47422  -2.36128  -4.61441 
 C                    -1    2.5983   -2.93554  -1.33955 
 H                    0     1.92266  -3.0103   -0.48698 
 H                    0     3.22614  -3.82526  -1.37869 
 C                    -1    4.3711    0.58228  -1.46443 
 H                    0     5.38417   0.25901  -1.2329 
 H                    0     4.3888    1.21912  -2.34881 
 C                    -1   -0.17686   4.20022  -1.20914 
 H                    0    -0.25145   4.03692  -2.28239 
 H                    0     0.26102   5.18214  -1.03083 
 C                    0    -4.03261   1.96301   0.91531 
 H                    0    -4.98716   2.05255   1.43014 
 H                    0    -3.41626   1.22484   1.42444 
 C                    -1   -1.17281   3.91437   4.03839 
 H                    0    -2.01321   3.94772   4.73241 
 H                    0    -0.6547    4.87929   4.08652 
 C                    -1   -3.31659   3.32039   0.91924 
 H                    0    -3.94783   4.11409   0.51921 
 C                    -1   -0.6209    3.68911   10.93742 
 H                    0    -1.16861   4.3775    10.28988 
 H                    0    -1.32952   3.30427   11.6789 
 H                    0     0.13925   4.2588    11.47674 
 C                    0     3.43418  -1.92182   4.80088 
 H                    0     3.76189  -2.93775   5.0564 
 H                    0     4.23388  -1.2168    5.02668 
 C                    -1    7.45672   1.91399   3.33467 
 H                    0     8.40414   1.41835   3.10992 
 H                    0     7.1939    2.56909   2.50294 
 H                    0     7.59453   2.50591   4.24008 
 C                    0    -0.77533   2.14253  -4.76052 
 H                    0    -1.12237   2.13028  -3.7287 
 H                    0    -1.63518   2.26435  -5.4162 
 C                    -1    0.28362   3.19027  -5.02121 
 H                    0     0.5988    3.16128  -6.06574 
 H                    0    -0.10902   4.18832  -4.81432 
 H                    0     1.15238   3.02829  -4.37805 
 
 IRC-IRC-IRC-IRC-IRC-IRC-IRC-IRC-IRC-IRC-IRC-IRC-IRC-IRC-IRC-IRC-IRC-IRC
 ------------------------------------------------------------------------
 INPUT DATA FOR L123
 ------------------------------------------------------------------------
 GENERAL PARAMETERS:
 Follow reaction path in both directions.
 Maximum points per path      =  70
 Step size                    =   0.050 bohr
 Integration scheme           = LQA                                 
 Initial Hessian              = CalcFC
 Hessian evaluation           = All updating
 Hessian updating method      = Bofill                              
 ------------------------------------------------------------------------
 IRC-IRC-IRC-IRC-IRC-IRC-IRC-IRC-IRC-IRC-IRC-IRC-IRC-IRC-IRC-IRC-IRC-IRC
 Symmetry turned off by external request.
 Stoichiometry    C37H74MgN10O25P3S(1-)
 Framework group  C1[X(C37H74MgN10O25P3S)]
 Deg. of freedom   447
 Full point group                 C1      NOp   1
                          Input orientation:                          
 ---------------------------------------------------------------------
 Center     Atomic      Atomic             Coordinates (Angstroms)
 Number     Number       Type             X           Y           Z
 ---------------------------------------------------------------------
      1          6           0        2.362359   -3.044918   -3.766051
      2          8           0        3.505318   -3.464961   -3.924937
      3          7           0        1.824066   -2.796387   -2.547437
      4          6           0        3.590933   -1.751581   -1.016462
      5          8           0        4.394691   -1.901852   -0.104584
      6          1           0        0.878144   -2.401877   -2.502521
      7          7           0        3.526357   -0.598625   -1.752604
      8          6           0        3.887330    1.433588   -0.271823
      9          8           0        4.648584    2.264565    0.225379
     10          1           0        2.705168   -0.428949   -2.330227
     11          7           0        2.627899    1.216768    0.169460
     12          6           0        1.979219    2.031534    1.188206
     13          6           0        1.119055    3.188998    0.632406
     14          8           0        0.799909    4.100875    1.399011
     15          1           0        2.055578    0.532795   -0.309837
     16          1           0        1.300393    1.430382    1.780499
     17          1           0        2.739584    2.477534    1.825628
     18          7           0        0.684472    3.149117   -0.649748
     19          6           0       -1.624558    4.292683   -0.636869
     20          8           0       -2.272824    5.305097   -0.876463
     21          7           0       -0.195241    0.795184   -5.033064
     22          1           0        0.924360    2.361736   -1.248149
     23          1           0        0.524519    0.603939   -4.309847
     24          1           0       -0.954045    0.080870   -4.974847
     25          1           0        0.181362    0.793667   -5.987837
     26          7           0       -2.090527    3.260141    0.110808
     27          6           0       -3.015975    3.623827    2.411096
     28          8           0       -3.944453    3.683238    3.213213
     29          8           0       -4.236908    1.422785   -0.408534
     30          1           0       -1.504887    2.437224    0.246849
     31          1           0       -4.764887    2.017574   -0.952887
     32          7           0       -1.711356    3.737418    2.709540
     33          6           0       -0.179171    2.832694    4.457525
     34         16           0       -0.906781    1.158079    4.665331
     35          1           0       -1.030178    3.751568    1.961487
     36          1           0        0.642182    2.778736    3.744398
     37          1           0        0.237222    3.094016    5.431833
     38          1           0       -1.148568    0.973339    3.342140
     39          6           0       -0.004306    2.562848   10.145692
     40          6           0       -0.596755    2.100711    8.965327
     41          6           0        1.161479    1.933056   10.593061
     42          6           0       -0.048430    1.030403    8.260302
     43          6           0        1.713208    0.864765    9.889737
     44          6           0        1.109181    0.404145    8.721125
     45          1           0       -1.496614    2.582295    8.595814
     46          1           0        1.639864    2.284915   11.501731
     47          1           0       -0.519688    0.685941    7.346472
     48          1           0        2.618862    0.391411   10.253218
     49          1           0        1.526656   -0.433866    8.176637
     50          8           0       -0.349292    1.453976   -7.789980
     51          7           0       -1.614824   -0.410591   -8.049530
     52          1           0       -2.560795   -0.774879   -8.032924
     53          6           0       -3.341022   -4.042494   -8.618653
     54          6           0       -3.612184   -3.275494   -7.339743
     55          7           0       -3.302147   -3.865701   -6.185337
     56          8           0       -4.102190   -2.127123   -7.418500
     57          1           0       -2.584224   -3.469481   -9.164095
     58          1           0       -4.254890   -3.964865   -9.212939
     59          1           0       -3.428056   -3.398446   -5.284717
     60          1           0       -2.911159   -4.793184   -6.179294
     61          6           0        6.406822    0.840222    3.608034
     62          7           0        5.447575    0.692077    2.666668
     63          8           0        6.457943    0.149382    4.622987
     64          1           0        4.777452   -0.061417    2.761015
     65          1           0        5.393281    1.280355    1.844547
     66         15           0       -0.831116   -0.399740    0.843530
     67         15           0       -0.220740   -0.067071   -1.957601
     68         15           0       -3.602953   -0.853330   -4.260396
     69          6           0        1.175489   -1.097264    2.333330
     70          8           0       -0.142128   -1.462461    1.856318
     71          6           0        1.761994   -2.204622    3.180370
     72          8           0        3.136752   -1.819094    3.403364
     73          6           0        1.103841   -2.337505    4.559144
     74          8           0        1.049911   -3.698901    5.003516
     75          6           0        2.102310   -1.626377    5.495520
     76          8           0        2.025331   -2.091215    6.826390
     77          8           0       -0.879388    0.977217    1.448899
     78          8           0        1.007259    0.637279   -2.540869
     79          8           0       -3.888200    0.128115   -3.149024
     80          8           0       -2.155524   -0.968441    0.354782
     81          8           0       -1.426032    0.873551   -1.751551
     82          8           0       -3.983635   -2.353260   -3.834957
     83          8           0        0.256874   -0.422352   -0.373073
     84          8           0       -0.609306   -1.386213   -2.600473
     85          8           0       -2.439351   -0.670882   -5.174105
     86          1           0        1.730133   -3.011568    6.757781
     87          1           0        0.111825   -1.883792    4.587667
     88          1           0        1.723459   -3.160565    2.649101
     89          1           0        0.215574   -4.082409    4.718830
     90          1           0        1.900078   -0.551505    5.499147
     91          1           0        1.099508   -0.191196    2.935892
     92          1           0        1.841054   -0.924429    1.488461
     93         12           0       -3.107557   -0.072846   -1.272450
     94          8           0       -4.103019   -1.913838   -1.178566
     95          1           0       -3.542095   -2.450293   -0.603677
     96          1           0       -4.130493   -2.333724   -2.067486
     97          8           0       -5.055112   -0.986262   -5.266319
     98          1           0       -4.983303   -2.000834   -4.596356
     99          1           0       -4.747624   -1.309532   -6.176024
    100          6           0       -2.908272   -5.500704   -8.470927
    101          1           0       -2.777293   -5.951983   -9.455741
    102          1           0       -1.952510   -5.591024   -7.947577
    103          1           0       -3.657392   -6.090556   -7.936962
    104          6           0       -0.561134   -1.318251   -7.634749
    105          1           0       -0.733786   -1.666195   -6.615434
    106          1           0       -0.528789   -2.183567   -8.300378
    107          1           0        0.393835   -0.802172   -7.700309
    108          6           0       -1.441146    0.923640   -8.038333
    109          6           0       -2.670951    1.752676   -8.318580
    110          1           0       -3.071432    2.116507   -7.368308
    111          1           0       -2.389320    2.617980   -8.917942
    112          1           0       -3.453649    1.188446   -8.826851
    113          6           0        1.437579   -2.756881   -4.935225
    114          1           0        1.929724   -2.037594   -5.593958
    115          1           0        1.290065   -3.675319   -5.507871
    116          1           0        0.474222   -2.361277   -4.614413
    117          6           0        2.598300   -2.935538   -1.339553
    118          1           0        1.922664   -3.010305   -0.486982
    119          1           0        3.226139   -3.825264   -1.378686
    120          6           0        4.371098    0.582277   -1.464432
    121          1           0        5.384174    0.259009   -1.232897
    122          1           0        4.388804    1.219120   -2.348808
    123          6           0       -0.176855    4.200217   -1.209139
    124          1           0       -0.251448    4.036916   -2.282387
    125          1           0        0.261020    5.182140   -1.030833
    126          6           0       -4.032615    1.963007    0.915307
    127          1           0       -4.987162    2.052551    1.430136
    128          1           0       -3.416259    1.224836    1.424441
    129          6           0       -1.172807    3.914372    4.038388
    130          1           0       -2.013207    3.947724    4.732409
    131          1           0       -0.654704    4.879292    4.086520
    132          6           0       -3.316591    3.320389    0.919236
    133          1           0       -3.947831    4.114086    0.519207
    134          6           0       -0.620896    3.689109   10.937420
    135          1           0       -1.168610    4.377498   10.289875
    136          1           0       -1.329519    3.304267   11.678903
    137          1           0        0.139245    4.258804   11.476740
    138          6           0        3.434182   -1.921820    4.800877
    139          1           0        3.761888   -2.937749    5.056398
    140          1           0        4.233878   -1.216799    5.026682
    141          6           0        7.456722    1.913987    3.334670
    142          1           0        8.404139    1.418346    3.109916
    143          1           0        7.193900    2.569086    2.502935
    144          1           0        7.594530    2.505905    4.240077
    145          6           0       -0.775325    2.142528   -4.760519
    146          1           0       -1.122374    2.130281   -3.728696
    147          1           0       -1.635184    2.264348   -5.416201
    148          6           0        0.283621    3.190270   -5.021206
    149          1           0        0.598797    3.161284   -6.065736
    150          1           0       -0.109020    4.188322   -4.814318
    151          1           0        1.152382    3.028291   -4.378053
 ---------------------------------------------------------------------
 Rotational constants (GHZ):           0.0364611           0.0144872           0.0131294
 Standard basis: 6-311G(d,p) (5D, 7F)
  1870 basis functions,  3126 primitive gaussians,  1947 cartesian basis functions
   320 alpha electrons      320 beta electrons
       nuclear repulsion energy     17894.1307970045 Hartrees.
 NAtoms=  151 NActive=  151 NUniq=  151 SFac= 1.00D+00 NAtFMM=   60 NAOKFM=T Big=T
 Integral buffers will be    131072 words long.
 Raffenetti 2 integral format.
 Two-electron integral symmetry is turned off.
 Nuclear repulsion after empirical dispersion term =    17893.7469857952 Hartrees.
 Force inversion solution in PCM.
 ------------------------------------------------------------------------------
 Polarizable Continuum Model (PCM)
 =================================
 Model                : PCM.
 Atomic radii         : UFF (Universal Force Field).
 Polarization charges : Total charges.
 Charge compensation  : None.
 Solution method      : Matrix inversion.
 Cavity type          : Scaled VdW (van der Waals Surface) (Alpha=1.100).
 Cavity algorithm     : GePol (No added spheres)
                        Default sphere list used, NSphG=  151.
                        Lebedev-Laikov grids with approx.  5.0 points / Ang**2.
                        Smoothing algorithm: York/Karplus (Gamma=1.0000).
                        Polarization charges: spherical gaussians, with
                                              point-specific exponents (IZeta= 3).
                        Self-potential: point-specific (ISelfS= 7).
                        Self-field    : sphere-specific E.n sum rule (ISelfD= 2).
 1st derivatives      : Analytical E(r).r(x)/FMM algorithm (CHGder, D1EAlg=3).
                        Cavity 1st derivative terms included.
 2nd derivatives      : Analytical E(r).r(xy)/FMM algorithm (CHGder, D2EAlg=3).
                        Cavity 2nd derivative terms included.
 Solvent              : DiethylEther, Eps=   4.240000 Eps(inf)=   1.829527
 ------------------------------------------------------------------------------
 One-electron integrals computed using PRISM.
 NBasis=  1870 RedAO= T EigKep=  1.69D-04  NBF=  1870
 NBsUse=  1870 1.00D-06 EigRej= -1.00D+00 NBFU=  1870
 ExpMin= 3.48D-02 ExpMax= 9.34D+04 ExpMxC= 3.17D+03 IAcc=3 IRadAn=         5 AccDes= 0.00D+00
 Harris functional with IExCor=  402 and IRadAn=       5 diagonalized for initial guess.
 HarFok:  IExCor=  402 AccDes= 0.00D+00 IRadAn=         5 IDoV= 1 UseB2=F ITyADJ=14
 ICtDFT=  3500011 ScaDFX=  1.000000  1.000000  1.000000  1.000000
 FoFCou: FMM=F IPFlag=           0 FMFlag=      100000 FMFlg1=        2001
         NFxFlg=           0 DoJE=T BraDBF=F KetDBF=T FulRan=T
         wScrn=  0.000000 ICntrl=       500 IOpCl=  0 I1Cent=   200000004 NGrid=           0
         NMat0=    1 NMatS0=      1 NMatT0=    0 NMatD0=    1 NMtDS0=    0 NMtDT0=    0
 Symmetry not used in FoFCou.
 Requested convergence on RMS density matrix=1.00D-08 within 128 cycles.
 Requested convergence on MAX density matrix=1.00D-06.
 Requested convergence on             energy=1.00D-06.
 No special actions if energy rises.
 Inv3:  Mode=1 IEnd=   261090723.
 Iteration    1 A*A^-1 deviation from unit magnitude is 4.44D-15 for   3432.
 Iteration    1 A*A^-1 deviation from orthogonality  is 5.11D-15 for   7899    983.
 Iteration    1 A^-1*A deviation from unit magnitude is 4.00D-15 for   7291.
 Iteration    1 A^-1*A deviation from orthogonality  is 5.11D-15 for   9089   7899.
 Error on total polarization charges =  0.00551
 SCF Done:  E(RB3LYP) =  -5507.47744944     A.U. after   13 cycles
            NFock= 13  Conv=0.50D-08     -V/T= 2.0030
 DoSCS=F DFT=T ScalE2(SS,OS)=  1.000000  1.000000
 Range of M.O.s used for correlation:     1  1870
 NBasis=  1870 NAE=   320 NBE=   320 NFC=     0 NFV=     0
 NROrb=   1870 NOA=   320 NOB=   320 NVA=  1550 NVB=  1550
 PrsmSu:  requested number of processors reduced to:  18 ShMem   1 Linda.
 Symmetrizing basis deriv contribution to polar:
 IMax=3 JMax=2 DiffMx= 0.00D+00
 G2DrvN: will do    51 centers at a time, making    3 passes.
 Calling FoFCou, ICntrl=  3107 FMM=T I1Cent=   0 AccDes= 0.00D+00.
 Calling FoFCou, ICntrl=  3107 FMM=T I1Cent=   0 AccDes= 0.00D+00.
 Calling FoFCou, ICntrl=  3107 FMM=T I1Cent=   0 AccDes= 0.00D+00.
 NEqPCM:  Using equilibrium solvation (IEInf=0, Eps=   4.2400, EpsInf=   1.8295)
 G2PCM: DoFxE=T DoFxN=T DoGrad=T DoDP/DQ/DG/TGxP=FFFF NFrqRd=   0 IEInf=0 SqF1=F DoCFld=F IF1Alg=4.
 End of G2Drv F.D. properties file   721 does not exist.
 End of G2Drv F.D. properties file   722 does not exist.
 End of G2Drv F.D. properties file   788 does not exist.
          IDoAtm=11111111111011111111111111111111111111111111111111
          IDoAtm=11111111111111111111111111111111111111111111111110
          IDoAtm=11101111011111110110110111110110101111110111111011
          IDoAtm=1
 NEqPCM:  Using equilibrium solvation (IEInf=0, Eps=   4.2400, EpsInf=   1.8295)
          Differentiating once with respect to nuclear coordinates.
 CalDSu exits because no D1Ps are significant.
          There are   420 degrees of freedom in the 1st order CPHF.  IDoFFX=6 NUNeed=     0.
    417 vectors produced by pass  0 Test12= 4.96D-13 1.00D-09 XBig12= 2.52D-01 1.58D-01.
 AX will form    96 AO Fock derivatives at one time.
    417 vectors produced by pass  1 Test12= 4.96D-13 1.00D-09 XBig12= 1.40D-01 1.07D-01.
    417 vectors produced by pass  2 Test12= 4.96D-13 1.00D-09 XBig12= 9.87D-04 4.44D-03.
    417 vectors produced by pass  3 Test12= 4.96D-13 1.00D-09 XBig12= 6.39D-06 2.42D-04.
    417 vectors produced by pass  4 Test12= 4.96D-13 1.00D-09 XBig12= 1.96D-08 9.02D-06.
    376 vectors produced by pass  5 Test12= 4.96D-13 1.00D-09 XBig12= 2.48D-11 2.97D-07.
     72 vectors produced by pass  6 Test12= 4.96D-13 1.00D-09 XBig12= 2.46D-14 1.38D-08.
     12 vectors produced by pass  7 Test12= 4.96D-13 1.00D-09 XBig12= 5.20D-15 2.54D-09.
      9 vectors produced by pass  8 Test12= 4.96D-13 1.00D-09 XBig12= 3.71D-15 2.16D-09.
      3 vectors produced by pass  9 Test12= 4.96D-13 1.00D-09 XBig12= 1.17D-15 1.14D-09.
      3 vectors produced by pass 10 Test12= 4.96D-13 1.00D-09 XBig12= 2.46D-15 2.05D-09.
      3 vectors produced by pass 11 Test12= 4.96D-13 1.00D-09 XBig12= 2.82D-15 2.24D-09.
      2 vectors produced by pass 12 Test12= 4.96D-13 1.00D-09 XBig12= 1.60D-15 1.94D-09.
 InvSVY:  IOpt=1 It=  1 EMax= 8.88D-16
 Solved reduced A of dimension  2565 with   420 vectors.
 End of Minotr F.D. properties file   721 does not exist.
 End of Minotr F.D. properties file   722 does not exist.
 End of Minotr F.D. properties file   788 does not exist.
 Hyperfine terms turned off by default for NAtoms > 100.

 **********************************************************************

            Population analysis using the SCF density.

 **********************************************************************

 Alpha  occ. eigenvalues --  -88.80925 -77.17589 -77.16617 -77.13740 -46.75580
 Alpha  occ. eigenvalues --  -19.16149 -19.15771 -19.13515 -19.12990 -19.12168
 Alpha  occ. eigenvalues --  -19.12114 -19.11267 -19.10944 -19.10750 -19.10317
 Alpha  occ. eigenvalues --  -19.09379 -19.08373 -19.08341 -19.07988 -19.07825
 Alpha  occ. eigenvalues --  -19.07727 -19.06855 -19.06625 -19.06512 -19.06263
 Alpha  occ. eigenvalues --  -19.05845 -19.05832 -19.05746 -19.05506 -19.04655
 Alpha  occ. eigenvalues --  -14.36919 -14.34031 -14.33040 -14.32770 -14.32619
 Alpha  occ. eigenvalues --  -14.31597 -14.31593 -14.30951 -14.30461 -14.29690
 Alpha  occ. eigenvalues --  -10.29399 -10.27032 -10.26538 -10.26523 -10.26029
 Alpha  occ. eigenvalues --  -10.25530 -10.25423 -10.24937 -10.24732 -10.22629
 Alpha  occ. eigenvalues --  -10.21509 -10.21376 -10.21267 -10.21249 -10.20773
 Alpha  occ. eigenvalues --  -10.20568 -10.20393 -10.20245 -10.19806 -10.19446
 Alpha  occ. eigenvalues --  -10.19194 -10.19042 -10.18758 -10.18623 -10.17946
 Alpha  occ. eigenvalues --  -10.17267 -10.16757 -10.16471 -10.15656 -10.15305
 Alpha  occ. eigenvalues --  -10.15222 -10.15176 -10.15154 -10.15084 -10.15079
 Alpha  occ. eigenvalues --  -10.15064 -10.14464  -7.89708  -6.65705  -6.64634
 Alpha  occ. eigenvalues --   -6.61821  -5.86048  -5.85705  -5.85148  -4.82097
 Alpha  occ. eigenvalues --   -4.81824  -4.81698  -4.80953  -4.80825  -4.80661
 Alpha  occ. eigenvalues --   -4.78207  -4.77923  -4.77858  -3.05851  -1.80607
 Alpha  occ. eigenvalues --   -1.80414  -1.80334  -1.09142  -1.07457  -1.05783
 Alpha  occ. eigenvalues --   -1.05427  -1.04540  -1.03695  -1.03584  -1.03105
 Alpha  occ. eigenvalues --   -1.02985  -1.02434  -1.02408  -1.02073  -1.01894
 Alpha  occ. eigenvalues --   -1.01882  -1.01262  -1.00841  -1.00411  -1.00264
 Alpha  occ. eigenvalues --   -0.98575  -0.96695  -0.96217  -0.96142  -0.95226
 Alpha  occ. eigenvalues --   -0.93948  -0.92645  -0.92392  -0.92256  -0.91958
 Alpha  occ. eigenvalues --   -0.91897  -0.91534  -0.90990  -0.90243  -0.89495
 Alpha  occ. eigenvalues --   -0.88937  -0.87519  -0.83976  -0.78726  -0.77717
 Alpha  occ. eigenvalues --   -0.77020  -0.76260  -0.75482  -0.75291  -0.75011
 Alpha  occ. eigenvalues --   -0.74819  -0.74618  -0.73635  -0.72715  -0.71505
 Alpha  occ. eigenvalues --   -0.71372  -0.69267  -0.69075  -0.68459  -0.67276
 Alpha  occ. eigenvalues --   -0.66992  -0.66893  -0.66889  -0.65026  -0.62716
 Alpha  occ. eigenvalues --   -0.60326  -0.60291  -0.59822  -0.59135  -0.59063
 Alpha  occ. eigenvalues --   -0.58730  -0.58639  -0.58351  -0.58147  -0.58126
 Alpha  occ. eigenvalues --   -0.57215  -0.56833  -0.56685  -0.56621  -0.56436
 Alpha  occ. eigenvalues --   -0.55884  -0.55794  -0.55755  -0.55112  -0.54824
 Alpha  occ. eigenvalues --   -0.54138  -0.53893  -0.53556  -0.52764  -0.52051
 Alpha  occ. eigenvalues --   -0.51668  -0.51448  -0.50962  -0.50518  -0.50415
 Alpha  occ. eigenvalues --   -0.50247  -0.49431  -0.49304  -0.49044  -0.48079
 Alpha  occ. eigenvalues --   -0.47955  -0.47894  -0.47481  -0.47364  -0.47163
 Alpha  occ. eigenvalues --   -0.46865  -0.46621  -0.46301  -0.46172  -0.45911
 Alpha  occ. eigenvalues --   -0.45636  -0.45417  -0.45171  -0.45097  -0.44949
 Alpha  occ. eigenvalues --   -0.44858  -0.44649  -0.44407  -0.44367  -0.43934
 Alpha  occ. eigenvalues --   -0.43844  -0.43792  -0.43634  -0.43539  -0.43446
 Alpha  occ. eigenvalues --   -0.43218  -0.43008  -0.42813  -0.42609  -0.42455
 Alpha  occ. eigenvalues --   -0.42408  -0.42240  -0.42112  -0.42011  -0.41749
 Alpha  occ. eigenvalues --   -0.41493  -0.41407  -0.41324  -0.41171  -0.41011
 Alpha  occ. eigenvalues --   -0.40746  -0.40709  -0.40640  -0.40374  -0.40221
 Alpha  occ. eigenvalues --   -0.40174  -0.40055  -0.39767  -0.39666  -0.39295
 Alpha  occ. eigenvalues --   -0.39268  -0.38964  -0.38802  -0.38760  -0.38591
 Alpha  occ. eigenvalues --   -0.38330  -0.38159  -0.38070  -0.38034  -0.37840
 Alpha  occ. eigenvalues --   -0.37717  -0.37672  -0.37590  -0.37446  -0.37106
 Alpha  occ. eigenvalues --   -0.37080  -0.36642  -0.36172  -0.36028  -0.35924
 Alpha  occ. eigenvalues --   -0.35792  -0.35730  -0.35634  -0.35318  -0.35303
 Alpha  occ. eigenvalues --   -0.35144  -0.35037  -0.34894  -0.34582  -0.34545
 Alpha  occ. eigenvalues --   -0.34419  -0.34213  -0.34036  -0.33950  -0.33807
 Alpha  occ. eigenvalues --   -0.33543  -0.33020  -0.32867  -0.32778  -0.32287
 Alpha  occ. eigenvalues --   -0.32193  -0.31854  -0.31623  -0.31140  -0.30848
 Alpha  occ. eigenvalues --   -0.30607  -0.30376  -0.30225  -0.30134  -0.29663
 Alpha  occ. eigenvalues --   -0.29317  -0.28535  -0.28386  -0.28092  -0.27868
 Alpha  occ. eigenvalues --   -0.27584  -0.27512  -0.27345  -0.27024  -0.26884
 Alpha  occ. eigenvalues --   -0.26610  -0.26399  -0.26305  -0.26205  -0.25574
 Alpha  occ. eigenvalues --   -0.25444  -0.24667  -0.24536  -0.24445  -0.24154
 Alpha  occ. eigenvalues --   -0.23904  -0.23758  -0.23606  -0.23510  -0.23326
 Alpha  occ. eigenvalues --   -0.23230  -0.22766  -0.22663  -0.22308  -0.21526
 Alpha virt. eigenvalues --   -0.00125   0.00718   0.00982   0.01103   0.01818
 Alpha virt. eigenvalues --    0.02150   0.02374   0.02779   0.03251   0.03375
 Alpha virt. eigenvalues --    0.03443   0.03616   0.03939   0.04221   0.04420
 Alpha virt. eigenvalues --    0.04631   0.04939   0.05021   0.05729   0.05992
 Alpha virt. eigenvalues --    0.06264   0.06369   0.06681   0.07094   0.07339
 Alpha virt. eigenvalues --    0.07596   0.07912   0.08546   0.08584   0.08734
 Alpha virt. eigenvalues --    0.08866   0.09108   0.09357   0.09570   0.09852
 Alpha virt. eigenvalues --    0.10184   0.10324   0.10483   0.10652   0.10811
 Alpha virt. eigenvalues --    0.11122   0.11258   0.11400   0.11446   0.11552
 Alpha virt. eigenvalues --    0.11707   0.11972   0.12070   0.12320   0.12376
 Alpha virt. eigenvalues --    0.12464   0.12678   0.12822   0.13150   0.13175
 Alpha virt. eigenvalues --    0.13255   0.13523   0.13719   0.13837   0.13963
 Alpha virt. eigenvalues --    0.14131   0.14380   0.14415   0.14514   0.14598
 Alpha virt. eigenvalues --    0.14727   0.14888   0.14955   0.15173   0.15296
 Alpha virt. eigenvalues --    0.15405   0.15529   0.15742   0.15897   0.16290
 Alpha virt. eigenvalues --    0.16322   0.16454   0.16635   0.16712   0.17257
 Alpha virt. eigenvalues --    0.17320   0.17379   0.17440   0.17707   0.17921
 Alpha virt. eigenvalues --    0.18011   0.18165   0.18362   0.18465   0.18524
 Alpha virt. eigenvalues --    0.18675   0.18885   0.19048   0.19176   0.19438
 Alpha virt. eigenvalues --    0.19543   0.19763   0.20005   0.20394   0.20770
 Alpha virt. eigenvalues --    0.21116   0.21215   0.21356   0.21527   0.21632
 Alpha virt. eigenvalues --    0.21766   0.21947   0.22280   0.22481   0.22533
 Alpha virt. eigenvalues --    0.22938   0.22993   0.23100   0.23351   0.23447
 Alpha virt. eigenvalues --    0.23746   0.24029   0.24118   0.24515   0.24540
 Alpha virt. eigenvalues --    0.24723   0.25082   0.25240   0.25333   0.25387
 Alpha virt. eigenvalues --    0.25750   0.25805   0.25996   0.26337   0.26558
 Alpha virt. eigenvalues --    0.26761   0.26944   0.27186   0.27496   0.27781
 Alpha virt. eigenvalues --    0.27891   0.28095   0.28286   0.28535   0.28583
 Alpha virt. eigenvalues --    0.28600   0.28791   0.29039   0.29120   0.29399
 Alpha virt. eigenvalues --    0.29598   0.29753   0.29866   0.30019   0.30334
 Alpha virt. eigenvalues --    0.30365   0.30658   0.30851   0.31107   0.31141
 Alpha virt. eigenvalues --    0.31304   0.31752   0.31815   0.32170   0.32386
 Alpha virt. eigenvalues --    0.32553   0.32646   0.32774   0.33003   0.33180
 Alpha virt. eigenvalues --    0.33368   0.33492   0.33749   0.34105   0.34340
 Alpha virt. eigenvalues --    0.34372   0.34823   0.34939   0.35132   0.35278
 Alpha virt. eigenvalues --    0.35361   0.35498   0.35935   0.36196   0.36402
 Alpha virt. eigenvalues --    0.36563   0.36796   0.37101   0.37174   0.37737
 Alpha virt. eigenvalues --    0.37983   0.38333   0.38578   0.38791   0.39263
 Alpha virt. eigenvalues --    0.39343   0.39743   0.39748   0.40059   0.40250
 Alpha virt. eigenvalues --    0.40451   0.40700   0.40868   0.41070   0.41201
 Alpha virt. eigenvalues --    0.41535   0.41634   0.41872   0.42095   0.42290
 Alpha virt. eigenvalues --    0.42486   0.42668   0.42871   0.42991   0.43159
 Alpha virt. eigenvalues --    0.43295   0.43448   0.43622   0.43815   0.43920
 Alpha virt. eigenvalues --    0.44105   0.44158   0.44315   0.44483   0.44993
 Alpha virt. eigenvalues --    0.45085   0.45431   0.45552   0.45575   0.45747
 Alpha virt. eigenvalues --    0.46059   0.46313   0.46509   0.46702   0.46916
 Alpha virt. eigenvalues --    0.47061   0.47254   0.47345   0.47547   0.47779
 Alpha virt. eigenvalues --    0.47885   0.48009   0.48161   0.48798   0.48976
 Alpha virt. eigenvalues --    0.49117   0.49350   0.49469   0.49513   0.49637
 Alpha virt. eigenvalues --    0.49881   0.50155   0.50527   0.50608   0.50920
 Alpha virt. eigenvalues --    0.50996   0.51193   0.51422   0.51704   0.51768
 Alpha virt. eigenvalues --    0.52217   0.52401   0.52487   0.52743   0.53079
 Alpha virt. eigenvalues --    0.53196   0.53393   0.53681   0.53758   0.53980
 Alpha virt. eigenvalues --    0.54264   0.54455   0.54931   0.55117   0.55465
 Alpha virt. eigenvalues --    0.55645   0.55709   0.55806   0.55937   0.56109
 Alpha virt. eigenvalues --    0.56244   0.56451   0.56578   0.56779   0.56882
 Alpha virt. eigenvalues --    0.57031   0.57347   0.57376   0.57632   0.57817
 Alpha virt. eigenvalues --    0.57892   0.58138   0.58286   0.58391   0.58649
 Alpha virt. eigenvalues --    0.58809   0.58954   0.59096   0.59252   0.59335
 Alpha virt. eigenvalues --    0.59567   0.59671   0.59690   0.59865   0.60102
 Alpha virt. eigenvalues --    0.60316   0.60340   0.60508   0.60615   0.60781
 Alpha virt. eigenvalues --    0.60999   0.61117   0.61211   0.61404   0.61465
 Alpha virt. eigenvalues --    0.61764   0.62007   0.62258   0.62386   0.62568
 Alpha virt. eigenvalues --    0.62582   0.62767   0.62869   0.62966   0.63014
 Alpha virt. eigenvalues --    0.63305   0.63408   0.63452   0.63584   0.63849
 Alpha virt. eigenvalues --    0.63900   0.64123   0.64358   0.64448   0.64543
 Alpha virt. eigenvalues --    0.64830   0.65053   0.65235   0.65461   0.65671
 Alpha virt. eigenvalues --    0.65864   0.66097   0.66236   0.66284   0.66465
 Alpha virt. eigenvalues --    0.66773   0.66875   0.67071   0.67186   0.67449
 Alpha virt. eigenvalues --    0.67567   0.67993   0.68099   0.68277   0.68630
 Alpha virt. eigenvalues --    0.68705   0.69130   0.69470   0.69574   0.69722
 Alpha virt. eigenvalues --    0.69836   0.70014   0.70428   0.70616   0.70712
 Alpha virt. eigenvalues --    0.71227   0.71452   0.71725   0.72026   0.72142
 Alpha virt. eigenvalues --    0.72232   0.72616   0.72712   0.72940   0.73318
 Alpha virt. eigenvalues --    0.73419   0.73859   0.73992   0.74130   0.74381
 Alpha virt. eigenvalues --    0.74873   0.74974   0.75224   0.75725   0.76201
 Alpha virt. eigenvalues --    0.76310   0.76955   0.77166   0.77294   0.77538
 Alpha virt. eigenvalues --    0.77738   0.77965   0.78307   0.78570   0.78713
 Alpha virt. eigenvalues --    0.79229   0.79569   0.79867   0.80153   0.80525
 Alpha virt. eigenvalues --    0.81040   0.81177   0.81416   0.81615   0.81684
 Alpha virt. eigenvalues --    0.81938   0.82086   0.82372   0.82811   0.83012
 Alpha virt. eigenvalues --    0.83303   0.83316   0.83666   0.84187   0.84261
 Alpha virt. eigenvalues --    0.84489   0.84832   0.85049   0.85362   0.86140
 Alpha virt. eigenvalues --    0.86247   0.86484   0.86821   0.87174   0.87585
 Alpha virt. eigenvalues --    0.87717   0.87797   0.88313   0.88489   0.88736
 Alpha virt. eigenvalues --    0.88968   0.89377   0.89904   0.90165   0.90422
 Alpha virt. eigenvalues --    0.90808   0.90954   0.91468   0.91679   0.91863
 Alpha virt. eigenvalues --    0.92125   0.92414   0.92711   0.92760   0.92894
 Alpha virt. eigenvalues --    0.93102   0.93284   0.93830   0.94040   0.94356
 Alpha virt. eigenvalues --    0.94687   0.94778   0.95052   0.95370   0.95506
 Alpha virt. eigenvalues --    0.95721   0.95886   0.96117   0.96615   0.96956
 Alpha virt. eigenvalues --    0.97302   0.97383   0.97728   0.97880   0.98126
 Alpha virt. eigenvalues --    0.98464   0.98681   0.98854   0.99078   0.99507
 Alpha virt. eigenvalues --    0.99784   1.00079   1.00183   1.00855   1.00923
 Alpha virt. eigenvalues --    1.01072   1.01112   1.01409   1.01675   1.01881
 Alpha virt. eigenvalues --    1.02086   1.02324   1.02537   1.02845   1.03001
 Alpha virt. eigenvalues --    1.03338   1.03493   1.03599   1.03696   1.04445
 Alpha virt. eigenvalues --    1.04689   1.04718   1.05095   1.05294   1.05477
 Alpha virt. eigenvalues --    1.05646   1.06080   1.06176   1.06485   1.06755
 Alpha virt. eigenvalues --    1.06990   1.07341   1.07571   1.07864   1.08272
 Alpha virt. eigenvalues --    1.08652   1.09015   1.09329   1.09787   1.09925
 Alpha virt. eigenvalues --    1.10198   1.10664   1.10714   1.11167   1.11382
 Alpha virt. eigenvalues --    1.11479   1.12161   1.12254   1.12627   1.13178
 Alpha virt. eigenvalues --    1.13397   1.13672   1.13817   1.14392   1.14618
 Alpha virt. eigenvalues --    1.14653   1.14913   1.15184   1.15411   1.15592
 Alpha virt. eigenvalues --    1.15718   1.16201   1.16409   1.16623   1.16767
 Alpha virt. eigenvalues --    1.17059   1.17375   1.17995   1.18267   1.18589
 Alpha virt. eigenvalues --    1.18778   1.19095   1.19353   1.19824   1.20105
 Alpha virt. eigenvalues --    1.20482   1.20606   1.20883   1.21415   1.21656
 Alpha virt. eigenvalues --    1.21993   1.22657   1.23248   1.23520   1.23770
 Alpha virt. eigenvalues --    1.23941   1.24411   1.24914   1.25176   1.25289
 Alpha virt. eigenvalues --    1.25674   1.26279   1.26455   1.26862   1.27164
 Alpha virt. eigenvalues --    1.27200   1.27420   1.27681   1.28239   1.28424
 Alpha virt. eigenvalues --    1.28997   1.29281   1.29523   1.29831   1.30011
 Alpha virt. eigenvalues --    1.30400   1.30745   1.30884   1.31075   1.31422
 Alpha virt. eigenvalues --    1.31606   1.32275   1.32907   1.33025   1.33136
 Alpha virt. eigenvalues --    1.33658   1.34213   1.34417   1.34603   1.34966
 Alpha virt. eigenvalues --    1.35421   1.35647   1.36089   1.36340   1.36461
 Alpha virt. eigenvalues --    1.36572   1.36841   1.37182   1.37597   1.38132
 Alpha virt. eigenvalues --    1.38502   1.39095   1.39386   1.39711   1.40650
 Alpha virt. eigenvalues --    1.40787   1.41159   1.41428   1.41637   1.41813
 Alpha virt. eigenvalues --    1.42207   1.42751   1.43237   1.43470   1.43541
 Alpha virt. eigenvalues --    1.43811   1.44226   1.44521   1.44613   1.45028
 Alpha virt. eigenvalues --    1.45204   1.45442   1.45810   1.45854   1.46069
 Alpha virt. eigenvalues --    1.46134   1.46369   1.46416   1.46676   1.46976
 Alpha virt. eigenvalues --    1.47161   1.47550   1.47851   1.48141   1.48461
 Alpha virt. eigenvalues --    1.48544   1.48726   1.49179   1.49243   1.49386
 Alpha virt. eigenvalues --    1.49746   1.49984   1.50073   1.50336   1.50509
 Alpha virt. eigenvalues --    1.50710   1.50988   1.51093   1.51222   1.51303
 Alpha virt. eigenvalues --    1.51826   1.52047   1.52146   1.52338   1.52630
 Alpha virt. eigenvalues --    1.52856   1.52961   1.53089   1.53149   1.53273
 Alpha virt. eigenvalues --    1.53637   1.53735   1.53957   1.54051   1.54271
 Alpha virt. eigenvalues --    1.54634   1.54918   1.54968   1.55121   1.55451
 Alpha virt. eigenvalues --    1.55840   1.55961   1.56058   1.56412   1.56516
 Alpha virt. eigenvalues --    1.56969   1.57299   1.57399   1.57655   1.57825
 Alpha virt. eigenvalues --    1.57941   1.58106   1.58354   1.58670   1.58776
 Alpha virt. eigenvalues --    1.58974   1.59353   1.59735   1.59817   1.60234
 Alpha virt. eigenvalues --    1.60354   1.60427   1.60544   1.60847   1.60969
 Alpha virt. eigenvalues --    1.61240   1.62050   1.62215   1.62346   1.62706
 Alpha virt. eigenvalues --    1.62794   1.62986   1.63145   1.63614   1.63900
 Alpha virt. eigenvalues --    1.64252   1.64367   1.64672   1.64725   1.64797
 Alpha virt. eigenvalues --    1.65091   1.65141   1.65586   1.65713   1.65768
 Alpha virt. eigenvalues --    1.65797   1.66044   1.66127   1.66364   1.66712
 Alpha virt. eigenvalues --    1.66993   1.67296   1.67383   1.67458   1.67820
 Alpha virt. eigenvalues --    1.68115   1.68334   1.68409   1.68623   1.68881
 Alpha virt. eigenvalues --    1.69110   1.69250   1.69636   1.69807   1.70044
 Alpha virt. eigenvalues --    1.70355   1.70532   1.70764   1.70952   1.70982
 Alpha virt. eigenvalues --    1.71410   1.71461   1.71882   1.72183   1.72311
 Alpha virt. eigenvalues --    1.72493   1.72872   1.73484   1.73532   1.73833
 Alpha virt. eigenvalues --    1.73959   1.74207   1.74433   1.74613   1.74617
 Alpha virt. eigenvalues --    1.75305   1.75523   1.75690   1.75943   1.76074
 Alpha virt. eigenvalues --    1.76284   1.76717   1.76798   1.76953   1.77100
 Alpha virt. eigenvalues --    1.77321   1.77551   1.77713   1.77978   1.78093
 Alpha virt. eigenvalues --    1.78605   1.78653   1.78905   1.79158   1.79516
 Alpha virt. eigenvalues --    1.79956   1.80287   1.80400   1.80688   1.80791
 Alpha virt. eigenvalues --    1.80912   1.81170   1.81514   1.81846   1.82103
 Alpha virt. eigenvalues --    1.82456   1.82635   1.82755   1.82964   1.83244
 Alpha virt. eigenvalues --    1.83558   1.83753   1.83971   1.84193   1.84365
 Alpha virt. eigenvalues --    1.84796   1.84897   1.85123   1.85472   1.86010
 Alpha virt. eigenvalues --    1.86055   1.86354   1.86626   1.87146   1.87715
 Alpha virt. eigenvalues --    1.88210   1.88353   1.88456   1.89406   1.89546
 Alpha virt. eigenvalues --    1.89761   1.90143   1.90601   1.91196   1.91427
 Alpha virt. eigenvalues --    1.91800   1.92348   1.92745   1.92990   1.93059
 Alpha virt. eigenvalues --    1.93278   1.93423   1.93874   1.94027   1.94198
 Alpha virt. eigenvalues --    1.94480   1.94870   1.94942   1.95373   1.95771
 Alpha virt. eigenvalues --    1.95936   1.96506   1.96882   1.96895   1.97397
 Alpha virt. eigenvalues --    1.97769   1.98081   1.98377   1.98656   1.99063
 Alpha virt. eigenvalues --    1.99692   1.99804   1.99958   2.00573   2.00903
 Alpha virt. eigenvalues --    2.01312   2.01353   2.01738   2.02206   2.02343
 Alpha virt. eigenvalues --    2.02572   2.02628   2.03205   2.03719   2.04110
 Alpha virt. eigenvalues --    2.04392   2.04595   2.04788   2.04836   2.04931
 Alpha virt. eigenvalues --    2.05061   2.05732   2.05958   2.06213   2.06580
 Alpha virt. eigenvalues --    2.06605   2.07036   2.07781   2.08091   2.09038
 Alpha virt. eigenvalues --    2.09237   2.09652   2.10037   2.10317   2.10653
 Alpha virt. eigenvalues --    2.11326   2.12037   2.12267   2.12741   2.12760
 Alpha virt. eigenvalues --    2.13283   2.13849   2.14052   2.14715   2.14765
 Alpha virt. eigenvalues --    2.15061   2.15274   2.15734   2.15929   2.17158
 Alpha virt. eigenvalues --    2.17422   2.17902   2.18160   2.18368   2.19080
 Alpha virt. eigenvalues --    2.19531   2.19628   2.19723   2.20270   2.20470
 Alpha virt. eigenvalues --    2.20634   2.20887   2.21132   2.21261   2.22523
 Alpha virt. eigenvalues --    2.22637   2.23283   2.23436   2.23743   2.24190
 Alpha virt. eigenvalues --    2.24455   2.25218   2.25480   2.26077   2.26477
 Alpha virt. eigenvalues --    2.26747   2.27309   2.27476   2.27794   2.28675
 Alpha virt. eigenvalues --    2.29589   2.29910   2.30227   2.30727   2.30857
 Alpha virt. eigenvalues --    2.31415   2.32147   2.33345   2.33573   2.34263
 Alpha virt. eigenvalues --    2.34844   2.35035   2.35334   2.35698   2.35912
 Alpha virt. eigenvalues --    2.36243   2.36855   2.36934   2.37494   2.37631
 Alpha virt. eigenvalues --    2.37780   2.38019   2.38389   2.38700   2.38944
 Alpha virt. eigenvalues --    2.39131   2.39235   2.39548   2.39762   2.40122
 Alpha virt. eigenvalues --    2.40481   2.40915   2.41194   2.41550   2.41808
 Alpha virt. eigenvalues --    2.42317   2.42537   2.43183   2.43604   2.43892
 Alpha virt. eigenvalues --    2.44236   2.44782   2.44841   2.45465   2.46224
 Alpha virt. eigenvalues --    2.46252   2.46609   2.46759   2.46989   2.47339
 Alpha virt. eigenvalues --    2.47629   2.47836   2.48231   2.48503   2.48555
 Alpha virt. eigenvalues --    2.48941   2.49175   2.49415   2.49505   2.49723
 Alpha virt. eigenvalues --    2.50039   2.50176   2.50402   2.50752   2.50851
 Alpha virt. eigenvalues --    2.51184   2.51246   2.51586   2.51745   2.52294
 Alpha virt. eigenvalues --    2.52365   2.52744   2.53019   2.53077   2.53286
 Alpha virt. eigenvalues --    2.53473   2.54085   2.54233   2.54492   2.54630
 Alpha virt. eigenvalues --    2.54784   2.55078   2.55350   2.55515   2.55864
 Alpha virt. eigenvalues --    2.56153   2.56613   2.56749   2.57005   2.57441
 Alpha virt. eigenvalues --    2.57816   2.57887   2.58258   2.58779   2.59132
 Alpha virt. eigenvalues --    2.59716   2.59901   2.60669   2.60719   2.61019
 Alpha virt. eigenvalues --    2.61122   2.61368   2.61448   2.61779   2.62153
 Alpha virt. eigenvalues --    2.62313   2.62968   2.63086   2.63367   2.63663
 Alpha virt. eigenvalues --    2.63895   2.64094   2.64211   2.64718   2.65040
 Alpha virt. eigenvalues --    2.65504   2.65531   2.66184   2.66530   2.67041
 Alpha virt. eigenvalues --    2.67574   2.68008   2.68170   2.68334   2.68811
 Alpha virt. eigenvalues --    2.69051   2.69543   2.69728   2.70331   2.70681
 Alpha virt. eigenvalues --    2.70792   2.71522   2.71726   2.71839   2.72515
 Alpha virt. eigenvalues --    2.72799   2.73482   2.73907   2.74149   2.74542
 Alpha virt. eigenvalues --    2.75140   2.75756   2.76093   2.76510   2.76547
 Alpha virt. eigenvalues --    2.77265   2.77619   2.77766   2.78061   2.78217
 Alpha virt. eigenvalues --    2.78485   2.78638   2.78938   2.79071   2.79212
 Alpha virt. eigenvalues --    2.79675   2.79802   2.80014   2.80249   2.80575
 Alpha virt. eigenvalues --    2.80859   2.81053   2.81237   2.81411   2.81833
 Alpha virt. eigenvalues --    2.82420   2.82679   2.82913   2.83033   2.83368
 Alpha virt. eigenvalues --    2.83525   2.83800   2.83975   2.84080   2.84285
 Alpha virt. eigenvalues --    2.84645   2.84925   2.85190   2.85623   2.85855
 Alpha virt. eigenvalues --    2.86150   2.86575   2.86782   2.86982   2.87290
 Alpha virt. eigenvalues --    2.87473   2.87765   2.87850   2.88206   2.88415
 Alpha virt. eigenvalues --    2.88587   2.88848   2.89130   2.89586   2.89690
 Alpha virt. eigenvalues --    2.89790   2.90290   2.90502   2.90972   2.91120
 Alpha virt. eigenvalues --    2.91374   2.91507   2.91943   2.92088   2.92262
 Alpha virt. eigenvalues --    2.92721   2.93149   2.93293   2.93536   2.93670
 Alpha virt. eigenvalues --    2.93813   2.93980   2.94276   2.94335   2.94605
 Alpha virt. eigenvalues --    2.94862   2.95079   2.95220   2.95312   2.95426
 Alpha virt. eigenvalues --    2.95486   2.95752   2.95999   2.96165   2.96209
 Alpha virt. eigenvalues --    2.96399   2.96573   2.97026   2.97232   2.97790
 Alpha virt. eigenvalues --    2.97862   2.98218   2.98343   2.98928   2.99267
 Alpha virt. eigenvalues --    2.99598   2.99914   3.00107   3.00365   3.00499
 Alpha virt. eigenvalues --    3.01429   3.01567   3.02029   3.02616   3.02895
 Alpha virt. eigenvalues --    3.03506   3.04005   3.04411   3.05426   3.05756
 Alpha virt. eigenvalues --    3.06028   3.06246   3.06802   3.07536   3.07738
 Alpha virt. eigenvalues --    3.08484   3.08808   3.08976   3.09112   3.09778
 Alpha virt. eigenvalues --    3.10065   3.10526   3.10827   3.11278   3.11663
 Alpha virt. eigenvalues --    3.11970   3.12171   3.12579   3.12997   3.13596
 Alpha virt. eigenvalues --    3.13854   3.13956   3.14466   3.14657   3.14764
 Alpha virt. eigenvalues --    3.15382   3.15475   3.16599   3.16895   3.17054
 Alpha virt. eigenvalues --    3.17380   3.17840   3.18030   3.18558   3.18970
 Alpha virt. eigenvalues --    3.19885   3.20620   3.20676   3.20804   3.21356
 Alpha virt. eigenvalues --    3.21483   3.22429   3.22782   3.23082   3.23775
 Alpha virt. eigenvalues --    3.24085   3.24524   3.25407   3.25877   3.26874
 Alpha virt. eigenvalues --    3.27003   3.27437   3.28386   3.28675   3.30060
 Alpha virt. eigenvalues --    3.30210   3.30532   3.30950   3.31751   3.32700
 Alpha virt. eigenvalues --    3.34884   3.34969   3.34991   3.35834   3.35857
 Alpha virt. eigenvalues --    3.36027   3.36155   3.36244   3.36691   3.37015
 Alpha virt. eigenvalues --    3.37095   3.37578   3.37677   3.37937   3.38869
 Alpha virt. eigenvalues --    3.39144   3.40446   3.41049   3.42688   3.42808
 Alpha virt. eigenvalues --    3.43890   3.44872   3.45863   3.47238   3.49327
 Alpha virt. eigenvalues --    3.49757   3.50126   3.51068   3.51218   3.52598
 Alpha virt. eigenvalues --    3.53165   3.54977   3.55390   3.56163   3.57166
 Alpha virt. eigenvalues --    3.57671   3.57746   3.58266   3.59712   3.60125
 Alpha virt. eigenvalues --    3.60466   3.60657   3.61089   3.61630   3.61935
 Alpha virt. eigenvalues --    3.62437   3.63594   3.64042   3.64300   3.64537
 Alpha virt. eigenvalues --    3.65813   3.66416   3.67809   3.68722   3.70168
 Alpha virt. eigenvalues --    3.74819   3.75172   3.75481   3.76490   3.76775
 Alpha virt. eigenvalues --    3.77200   3.77354   3.77974   3.78135   3.78930
 Alpha virt. eigenvalues --    3.79119   3.79374   3.79454   3.79873   3.79944
 Alpha virt. eigenvalues --    3.80032   3.80368   3.80617   3.80859   3.81266
 Alpha virt. eigenvalues --    3.81307   3.81597   3.81954   3.82014   3.82613
 Alpha virt. eigenvalues --    3.82944   3.83482   3.83777   3.84113   3.84146
 Alpha virt. eigenvalues --    3.84681   3.84961   3.85179   3.85475   3.85610
 Alpha virt. eigenvalues --    3.85971   3.86870   3.87181   3.87617   3.87670
 Alpha virt. eigenvalues --    3.88447   3.90266   3.91407   3.94656   3.96253
 Alpha virt. eigenvalues --    3.97399   3.97777   3.98378   3.98970   3.99244
 Alpha virt. eigenvalues --    3.99523   4.00639   4.01254   4.03292   4.04799
 Alpha virt. eigenvalues --    4.05691   4.06071   4.06589   4.07175   4.07634
 Alpha virt. eigenvalues --    4.08664   4.09052   4.10037   4.12246   4.12974
 Alpha virt. eigenvalues --    4.14777   4.14841   4.15483   4.16443   4.16841
 Alpha virt. eigenvalues --    4.20763   4.21457   4.22222   4.23242   4.29092
 Alpha virt. eigenvalues --    4.34543   4.34780   4.71092   4.72971   4.77027
 Alpha virt. eigenvalues --    4.78855   4.79273   4.79624   4.80155   4.81041
 Alpha virt. eigenvalues --    4.81906   4.82210   4.82657   4.84595   4.85956
 Alpha virt. eigenvalues --    4.88096   4.88585   4.90568   4.90938   4.91594
 Alpha virt. eigenvalues --    4.92465   4.93096   4.93845   4.94091   4.94341
 Alpha virt. eigenvalues --    4.94760   4.95154   4.95440   4.95495   4.96468
 Alpha virt. eigenvalues --    4.96576   4.96923   4.97175   4.97317   4.98515
 Alpha virt. eigenvalues --    4.98635   4.99687   5.01276   5.02220   5.02600
 Alpha virt. eigenvalues --    5.03234   5.04238   5.04754   5.04967   5.05643
 Alpha virt. eigenvalues --    5.06021   5.06695   5.06883   5.07393   5.07705
 Alpha virt. eigenvalues --    5.08676   5.08872   5.09704   5.10108   5.10589
 Alpha virt. eigenvalues --    5.10886   5.11645   5.12101   5.12252   5.12651
 Alpha virt. eigenvalues --    5.13164   5.13728   5.15064   5.15724   5.16205
 Alpha virt. eigenvalues --    5.18980   5.20212   5.22580   5.23803   5.26235
 Alpha virt. eigenvalues --    5.27008   5.28864   5.30000   5.30452   5.30975
 Alpha virt. eigenvalues --    5.33795   5.35544   5.36032   5.36862   5.38494
 Alpha virt. eigenvalues --    5.39700   5.39966   5.45356   5.46920   5.49908
 Alpha virt. eigenvalues --    5.60687   5.61699   5.65005   5.67082   5.67618
 Alpha virt. eigenvalues --    5.68194   5.68513   5.68581   5.69481   5.70399
 Alpha virt. eigenvalues --    5.71525   5.71896   5.72260   5.74804   6.08793
 Alpha virt. eigenvalues --    6.10907   6.16497   7.15751   7.18795   7.26541
 Alpha virt. eigenvalues --    8.01662  13.85461  13.94582  14.04055  14.05726
 Alpha virt. eigenvalues --   14.07063  14.13420  14.15356  14.17362  14.18904
 Alpha virt. eigenvalues --   17.34086  17.43024  17.49948  23.55848  23.76749
 Alpha virt. eigenvalues --   23.77913  23.78868  23.79059  23.79797  23.80203
 Alpha virt. eigenvalues --   23.80630  23.80804  23.80853  23.82050  23.82670
 Alpha virt. eigenvalues --   23.83295  23.83725  23.84309  23.84632  23.85026
 Alpha virt. eigenvalues --   23.85163  23.85777  23.86170  23.86739  23.87151
 Alpha virt. eigenvalues --   23.87552  23.90027  23.91798  23.92508  23.92667
 Alpha virt. eigenvalues --   23.92908  23.93042  23.93790  23.94400  23.96452
 Alpha virt. eigenvalues --   23.96852  23.97158  24.10104  24.12019  24.21762
 Alpha virt. eigenvalues --   35.57168  35.59174  35.60219  35.60772  35.61873
 Alpha virt. eigenvalues --   35.62827  35.63120  35.63327  35.64037  35.65583
 Alpha virt. eigenvalues --   49.83899  49.85652  49.87014  49.87686  49.88047
 Alpha virt. eigenvalues --   49.88280  49.90714  49.91911  49.92265  49.93083
 Alpha virt. eigenvalues --   49.93485  49.93564  49.96087  49.96640  49.98644
 Alpha virt. eigenvalues --   49.99840  50.00657  50.00882  50.01686  50.01908
 Alpha virt. eigenvalues --   50.02556  50.02633  50.03438  50.04366  50.06164
 Alpha virt. eigenvalues --  103.43662 163.19371 163.23127 163.30268 189.18455
          Condensed to atoms (all electrons):
 Mulliken charges:
               1
     1  C    0.302538
     2  O   -0.437468
     3  N   -0.429353
     4  C    0.319453
     5  O   -0.419494
     6  H    0.294552
     7  N   -0.431380
     8  C    0.328939
     9  O   -0.447965
    10  H    0.273284
    11  N   -0.421744
    12  C   -0.106262
    13  C    0.346400
    14  O   -0.438429
    15  H    0.311715
    16  H    0.182270
    17  H    0.142856
    18  N   -0.413386
    19  C    0.328109
    20  O   -0.431362
    21  N   -0.376811
    22  H    0.264332
    23  H    0.287816
    24  H    0.359050
    25  H    0.259991
    26  N   -0.428380
    27  C    0.364817
    28  O   -0.436783
    29  O   -0.513513
    30  H    0.332771
    31  H    0.322782
    32  N   -0.377694
    33  C   -0.397363
    34  S   -0.196143
    35  H    0.277702
    36  H    0.159975
    37  H    0.153462
    38  H    0.161766
    39  C   -0.110601
    40  C   -0.102472
    41  C   -0.088576
    42  C   -0.124195
    43  C   -0.117131
    44  C   -0.130824
    45  H    0.094543
    46  H    0.088364
    47  H    0.138732
    48  H    0.097102
    49  H    0.138434
    50  O   -0.458769
    51  N   -0.355219
    52  H    0.255820
    53  C   -0.230673
    54  C    0.379607
    55  N   -0.415733
    56  O   -0.500687
    57  H    0.146631
    58  H    0.148921
    59  H    0.271349
    60  H    0.254246
    61  C    0.283406
    62  N   -0.451420
    63  O   -0.426157
    64  H    0.245023
    65  H    0.257547
    66  P    1.403928
    67  P    1.361072
    68  P    1.300876
    69  C   -0.072659
    70  O   -0.522421
    71  C    0.084370
    72  O   -0.412543
    73  C   -0.053471
    74  O   -0.448668
    75  C    0.033898
    76  O   -0.415968
    77  O   -0.721112
    78  O   -0.773524
    79  O   -0.682597
    80  O   -0.723343
    81  O   -0.776515
    82  O   -0.723246
    83  O   -0.783229
    84  O   -0.710212
    85  O   -0.675983
    86  H    0.249861
    87  H    0.166949
    88  H    0.127699
    89  H    0.277938
    90  H    0.154210
    91  H    0.131954
    92  H    0.168199
    93  Mg   0.911814
    94  O   -0.526777
    95  H    0.321082
    96  H    0.337145
    97  O   -0.548864
    98  H    0.280544
    99  H    0.345020
   100  C   -0.346913
   101  H    0.132738
   102  H    0.123683
   103  H    0.127994
   104  C   -0.236438
   105  H    0.157216
   106  H    0.126181
   107  H    0.132036
   108  C    0.303036
   109  C   -0.303348
   110  H    0.143816
   111  H    0.136604
   112  H    0.122829
   113  C   -0.346872
   114  H    0.122815
   115  H    0.123568
   116  H    0.140610
   117  C   -0.089265
   118  H    0.153885
   119  H    0.141841
   120  C   -0.067852
   121  H    0.149865
   122  H    0.153245
   123  C   -0.081641
   124  H    0.157837
   125  H    0.150260
   126  C    0.007981
   127  H    0.150713
   128  H    0.169713
   129  C   -0.051800
   130  H    0.129618
   131  H    0.126368
   132  C   -0.080352
   133  H    0.153342
   134  C   -0.260393
   135  H    0.115534
   136  H    0.125518
   137  H    0.113618
   138  C    0.032127
   139  H    0.097576
   140  H    0.128470
   141  C   -0.316189
   142  H    0.134772
   143  H    0.116790
   144  H    0.128053
   145  C   -0.166400
   146  H    0.182928
   147  H    0.144636
   148  C   -0.331488
   149  H    0.128337
   150  H    0.125942
   151  H    0.123109
 Sum of Mulliken charges =  -1.00000
 Mulliken charges with hydrogens summed into heavy atoms:
               1
     1  C    0.302538
     2  O   -0.437468
     3  N   -0.134801
     4  C    0.319453
     5  O   -0.419494
     7  N   -0.158096
     8  C    0.328939
     9  O   -0.447965
    11  N   -0.110029
    12  C    0.218865
    13  C    0.346400
    14  O   -0.438429
    18  N   -0.149055
    19  C    0.328109
    20  O   -0.431362
    21  N    0.530045
    26  N   -0.095609
    27  C    0.364817
    28  O   -0.436783
    29  O   -0.190731
    32  N   -0.099992
    33  C   -0.083926
    34  S   -0.034377
    39  C   -0.110601
    40  C   -0.007929
    41  C   -0.000212
    42  C    0.014537
    43  C   -0.020029
    44  C    0.007610
    50  O   -0.458769
    51  N   -0.099399
    53  C    0.064878
    54  C    0.379607
    55  N    0.109863
    56  O   -0.500687
    61  C    0.283406
    62  N    0.051150
    63  O   -0.426157
    66  P    1.403928
    67  P    1.361072
    68  P    1.300876
    69  C    0.227494
    70  O   -0.522421
    71  C    0.212069
    72  O   -0.412543
    73  C    0.113478
    74  O   -0.170729
    75  C    0.188108
    76  O   -0.166107
    77  O   -0.721112
    78  O   -0.773524
    79  O   -0.682597
    80  O   -0.723343
    81  O   -0.776515
    82  O   -0.723246
    83  O   -0.783229
    84  O   -0.710212
    85  O   -0.675983
    93  Mg   0.911814
    94  O    0.131450
    97  O    0.076701
   100  C    0.037502
   104  C    0.178995
   108  C    0.303036
   109  C    0.099901
   113  C    0.040121
   117  C    0.206461
   120  C    0.235257
   123  C    0.226456
   126  C    0.328407
   129  C    0.204186
   132  C    0.072990
   134  C    0.094278
   138  C    0.258173
   141  C    0.063426
   145  C    0.161165
   148  C    0.045899
 Electronic spatial extent (au):  <R**2>=          85746.0159
 Charge=             -1.0000 electrons
 Dipole moment (field-independent basis, Debye):
    X=            -13.8110    Y=             -8.9330    Z=            -18.3136  Tot=             24.6157
 Quadrupole moment (field-independent basis, Debye-Ang):
   XX=           -595.0946   YY=           -520.0916   ZZ=           -522.9826
   XY=             64.4605   XZ=             11.5052   YZ=             21.3666
 Traceless Quadrupole moment (field-independent basis, Debye-Ang):
   XX=            -49.0384   YY=             25.9647   ZZ=             23.0737
   XY=             64.4605   XZ=             11.5052   YZ=             21.3666
 Octapole moment (field-independent basis, Debye-Ang**2):
  XXX=           -290.7909  YYY=           -804.4424  ZZZ=           -863.8961  XYY=            -87.9037
  XXY=            -87.6507  XXZ=           -236.6906  XZZ=           -399.4393  YZZ=           -407.6548
  YYZ=           -127.1193  XYZ=            -98.9752
 Hexadecapole moment (field-independent basis, Debye-Ang**3):
 XXXX=         -26543.3727 YYYY=         -18311.2334 ZZZZ=         -69929.0531 XXXY=           1331.1134
 XXXZ=          -8073.9256 YYYX=           1705.2852 YYYZ=          -5012.7251 ZZZX=          -5764.5747
 ZZZY=          -2019.4991 XXYY=          -7485.9057 XXZZ=         -17371.3903 YYZZ=         -12788.3973
 XXYZ=          -1978.6539 YYXZ=          -1316.6384 ZZXY=           1614.1688
 N-N= 1.789374698580D+04 E-N=-4.880994068810D+04  KE= 5.491135854717D+03
  Exact polarizability:   0.000   0.000   0.000   0.000   0.000   0.000
 Approx polarizability: 929.154 -26.259 917.787  43.398  20.335 947.537
 D2PCM: PCM CHGder 2nd derivatives, FixD1E=F FixD2E=F DoIter=F DoCFld=F I1PDM=0
 Calling FoFJK, ICntrl=    100147 FMM=F ISym2X=0 I1Cent= 0 IOpClX= 0 NMat=1 NMatS=1 NMatT=0.
 -------------------------------------------------------------------
 Center     Atomic                   Forces (Hartrees/Bohr)
 Number     Number              X              Y              Z
 -------------------------------------------------------------------
      1        6           0.000000150   -0.000000021    0.000000081
      2        8          -0.000000242    0.000000083    0.000000067
      3        7           0.000000909   -0.000000334    0.000000338
      4        6           0.000000034    0.000000283   -0.000000466
      5        8           0.000000230   -0.000000150    0.000000416
      6        1          -0.000000554    0.000000195   -0.000000099
      7        7          -0.000000515   -0.000000381   -0.000000080
      8        6           0.000000526    0.000000402    0.000000373
      9        8          -0.000000287   -0.000000678   -0.000000494
     10        1           0.000000106    0.000000050    0.000000002
     11        7          -0.000000092    0.000000133   -0.000000046
     12        6          -0.000000000   -0.000000000   -0.000000000
     13        6           0.000000232   -0.000000334   -0.000000510
     14        8          -0.000000176    0.000000149    0.000000094
     15        1          -0.000000074   -0.000000083   -0.000000042
     16        1           0.000000121    0.000000102   -0.000000003
     17        1          -0.000000196   -0.000000130   -0.000000093
     18        7          -0.000000346    0.000000736    0.000000802
     19        6           0.000000263    0.000002999   -0.000000997
     20        8           0.000000730   -0.000001325    0.000000357
     21        7           0.000000186   -0.000000289   -0.000000903
     22        1           0.000000166   -0.000000486   -0.000000396
     23        1           0.000000118    0.000000081    0.000000285
     24        1          -0.000000015   -0.000000056   -0.000000026
     25        1          -0.000000283    0.000000045    0.000000513
     26        7          -0.000001843   -0.000002102   -0.000000704
     27        6          -0.000001081   -0.000000393   -0.000000161
     28        8           0.000000972   -0.000000586   -0.000000337
     29        8          -0.000001082   -0.000000308   -0.000004367
     30        1           0.000000601   -0.000000115    0.000000378
     31        1           0.000000579    0.000001679    0.000000432
     32        7           0.000000890    0.000000056    0.000000213
     33        6          -0.000000341   -0.000000313   -0.000000404
     34       16          -0.000000449    0.000000501   -0.000000680
     35        1          -0.000000184   -0.000000090    0.000000098
     36        1           0.000000169   -0.000000013   -0.000000039
     37        1           0.000000191    0.000000104    0.000000340
     38        1           0.000000078    0.000000041    0.000000326
     39        6          -0.000000340   -0.000000209   -0.000000170
     40        6           0.000000071    0.000000090   -0.000000019
     41        6           0.000000489    0.000000060    0.000000042
     42        6          -0.000000531    0.000000684    0.000000336
     43        6          -0.000000104   -0.000000064    0.000000161
     44        6           0.000000845   -0.000000554    0.000000182
     45        1           0.000000003   -0.000000066   -0.000000033
     46        1          -0.000000083   -0.000000127   -0.000000175
     47        1          -0.000000062   -0.000000037   -0.000000165
     48        1          -0.000000103    0.000000060   -0.000000085
     49        1          -0.000000123    0.000000263    0.000000104
     50        8           0.000000577    0.000000276   -0.000000420
     51        7          -0.000000389    0.000000910   -0.000000096
     52        1           0.000000152   -0.000000034    0.000000027
     53        6          -0.000000327   -0.000000133   -0.000000189
     54        6          -0.000000252    0.000000604    0.000000048
     55        7           0.000000042    0.000000128   -0.000000329
     56        8           0.000000081   -0.000000350    0.000000136
     57        1           0.000000084    0.000000018    0.000000023
     58        1           0.000000206    0.000000003    0.000000104
     59        1           0.000000015   -0.000000045    0.000000059
     60        1           0.000000115   -0.000000253    0.000000122
     61        6           0.000000125   -0.000000506    0.000000808
     62        7          -0.000000188   -0.000000450   -0.000000558
     63        8           0.000000027    0.000000146   -0.000000368
     64        1           0.000000045    0.000000118   -0.000000017
     65        1          -0.000000261    0.000000755    0.000000435
     66       15          -0.000000123    0.000000017   -0.000000253
     67       15           0.000001770   -0.000000235   -0.000000004
     68       15           0.000000143   -0.000000725   -0.000000246
     69        6           0.000000289    0.000000411    0.000000470
     70        8          -0.000000009   -0.000000215    0.000000097
     71        6          -0.000000191    0.000000458    0.000000005
     72        8           0.000000141   -0.000000102    0.000000116
     73        6          -0.000000152   -0.000000293    0.000000039
     74        8          -0.000000450   -0.000000324   -0.000000139
     75        6          -0.000000095    0.000000453   -0.000000198
     76        8          -0.000000060   -0.000000302    0.000000267
     77        8           0.000000076    0.000000072   -0.000000131
     78        8          -0.000000700   -0.000000188    0.000000257
     79        8           0.000000086    0.000000062    0.000000001
     80        8           0.000000401   -0.000000062    0.000000448
     81        8          -0.000001304    0.000000869    0.000000391
     82        8           0.000000008    0.000000376    0.000000071
     83        8          -0.000000327   -0.000000015    0.000000027
     84        8          -0.000000236    0.000000012   -0.000000215
     85        8          -0.000000241    0.000000290   -0.000000085
     86        1           0.000000036    0.000000115    0.000000028
     87        1          -0.000000093    0.000000113   -0.000000005
     88        1           0.000000084   -0.000000171   -0.000000088
     89        1           0.000000465    0.000000247    0.000000149
     90        1           0.000000089   -0.000000418    0.000000034
     91        1           0.000000078   -0.000000473   -0.000000245
     92        1          -0.000000093   -0.000000031    0.000000028
     93       12          -0.000000827   -0.000000317    0.000000130
     94        8          -0.000000735    0.000000252   -0.000000882
     95        1           0.000000660   -0.000000592    0.000000418
     96        1           0.000000048    0.000000082    0.000000269
     97        8           0.000000020    0.000000024   -0.000000050
     98        1          -0.000000012   -0.000000057    0.000000050
     99        1           0.000000066   -0.000000041   -0.000000059
    100        6          -0.000000000   -0.000000000   -0.000000000
    101        1          -0.000000049   -0.000000006   -0.000000094
    102        1          -0.000000060   -0.000000080    0.000000048
    103        1          -0.000000013   -0.000000095    0.000000091
    104        6          -0.000000000   -0.000000000   -0.000000000
    105        1          -0.000000016   -0.000000008   -0.000000042
    106        1           0.000000054   -0.000000080    0.000000026
    107        1           0.000000123    0.000000068   -0.000000023
    108        6          -0.000000123   -0.000000927    0.000000810
    109        6          -0.000000000   -0.000000000   -0.000000000
    110        1           0.000000420   -0.000000075   -0.000000361
    111        1          -0.000000120    0.000000080   -0.000000282
    112        1           0.000000311    0.000000052   -0.000000162
    113        6          -0.000000416   -0.000000050   -0.000000015
    114        1           0.000000038    0.000000030   -0.000000126
    115        1           0.000000062    0.000000130    0.000000047
    116        1           0.000000308   -0.000000146   -0.000000060
    117        6          -0.000000000   -0.000000000   -0.000000000
    118        1          -0.000000240   -0.000000074    0.000000270
    119        1          -0.000000174    0.000000183   -0.000000020
    120        6          -0.000000000   -0.000000000   -0.000000000
    121        1           0.000000285   -0.000000032    0.000000114
    122        1           0.000000021    0.000000130   -0.000000197
    123        6          -0.000000000   -0.000000000   -0.000000000
    124        1           0.000000003    0.000000086    0.000000035
    125        1           0.000000077    0.000000244    0.000000047
    126        6           0.000001852   -0.000002408    0.000002208
    127        1           0.000000515   -0.000000369   -0.000000763
    128        1           0.000000571    0.000001481    0.000002237
    129        6          -0.000000000   -0.000000000   -0.000000000
    130        1          -0.000000274    0.000000121    0.000000230
    131        1           0.000000011    0.000000118    0.000000001
    132        6          -0.000000000   -0.000000000   -0.000000000
    133        1          -0.000000338   -0.000000082   -0.000000035
    134        6          -0.000000000   -0.000000000   -0.000000000
    135        1          -0.000000033    0.000000034   -0.000000042
    136        1          -0.000000080   -0.000000040   -0.000000088
    137        1           0.000000169    0.000000080    0.000000078
    138        6           0.000000139    0.000000419   -0.000000169
    139        1           0.000000095   -0.000000295   -0.000000021
    140        1          -0.000000084   -0.000000102    0.000000056
    141        6          -0.000000000   -0.000000000   -0.000000000
    142        1           0.000000061    0.000000005    0.000000016
    143        1           0.000000065   -0.000000012   -0.000000162
    144        1          -0.000000067    0.000000177    0.000000223
    145        6           0.000000441    0.000000314   -0.000000579
    146        1          -0.000000299    0.000000092    0.000000541
    147        1          -0.000000227   -0.000000054   -0.000000100
    148        6          -0.000000000   -0.000000000   -0.000000000
    149        1           0.000000020   -0.000000082    0.000000023
    150        1           0.000000011   -0.000000176    0.000000009
    151        1           0.000000106   -0.000000019    0.000000027
 -------------------------------------------------------------------
[...]
 Alpha virt. eigenvalues --    1.75363   1.75478   1.75777   1.75945   1.76165
 Alpha virt. eigenvalues --    1.76699   1.76738   1.76920   1.77145   1.77214
 Alpha virt. eigenvalues --    1.77547   1.77606   1.77859   1.78120   1.78476
 Alpha virt. eigenvalues --    1.78751   1.79055   1.79245   1.79616   1.79794
 Alpha virt. eigenvalues --    1.79987   1.80258   1.80521   1.80694   1.80716
 Alpha virt. eigenvalues --    1.81093   1.81133   1.81270   1.82036   1.82096
 Alpha virt. eigenvalues --    1.82271   1.82575   1.82801   1.82874   1.83225
 Alpha virt. eigenvalues --    1.83565   1.83657   1.83875   1.84211   1.84446
 Alpha virt. eigenvalues --    1.84541   1.84932   1.85189   1.85550   1.85832
 Alpha virt. eigenvalues --    1.86026   1.86220   1.86613   1.86954   1.87467
 Alpha virt. eigenvalues --    1.87914   1.88220   1.89029   1.89216   1.89482
 Alpha virt. eigenvalues --    1.89811   1.90086   1.90262   1.90669   1.91326
 Alpha virt. eigenvalues --    1.91714   1.91947   1.92344   1.92770   1.93044
 Alpha virt. eigenvalues --    1.93247   1.93354   1.93601   1.93736   1.94015
 Alpha virt. eigenvalues --    1.94249   1.94343   1.94935   1.95149   1.95325
 Alpha virt. eigenvalues --    1.95786   1.96313   1.96638   1.97004   1.97366
 Alpha virt. eigenvalues --    1.97685   1.97858   1.98128   1.98530   1.99186
 Alpha virt. eigenvalues --    1.99476   1.99734   2.00003   2.00031   2.00598
 Alpha virt. eigenvalues --    2.01017   2.01144   2.01801   2.02027   2.02224
 Alpha virt. eigenvalues --    2.02433   2.02736   2.02850   2.03647   2.04160
 Alpha virt. eigenvalues --    2.04276   2.04519   2.04788   2.04891   2.04945
 Alpha virt. eigenvalues --    2.05414   2.05722   2.05943   2.06129   2.06353
 Alpha virt. eigenvalues --    2.06614   2.07166   2.07853   2.07883   2.09015
 Alpha virt. eigenvalues --    2.09428   2.09715   2.10045   2.10497   2.10646
 Alpha virt. eigenvalues --    2.11365   2.12031   2.12432   2.12746   2.13065
 Alpha virt. eigenvalues --    2.13383   2.13834   2.14095   2.14785   2.14932
 Alpha virt. eigenvalues --    2.15072   2.15178   2.15843   2.15968   2.17162
 Alpha virt. eigenvalues --    2.17440   2.17922   2.18179   2.18395   2.19277
 Alpha virt. eigenvalues --    2.19356   2.19628   2.19778   2.20277   2.20358
 Alpha virt. eigenvalues --    2.20509   2.20992   2.21165   2.21292   2.22532
 Alpha virt. eigenvalues --    2.23115   2.23305   2.23834   2.23993   2.24306
 Alpha virt. eigenvalues --    2.24458   2.25221   2.26046   2.26414   2.26607
 Alpha virt. eigenvalues --    2.26790   2.27438   2.27497   2.27780   2.28586
 Alpha virt. eigenvalues --    2.29587   2.29905   2.30316   2.30821   2.31078
 Alpha virt. eigenvalues --    2.31708   2.32116   2.33344   2.33566   2.34256
 Alpha virt. eigenvalues --    2.34858   2.35035   2.35107   2.35412   2.35932
 Alpha virt. eigenvalues --    2.36274   2.36896   2.36927   2.37311   2.37623
 Alpha virt. eigenvalues --    2.37790   2.37945   2.38529   2.38677   2.38970
 Alpha virt. eigenvalues --    2.39237   2.39347   2.39572   2.39804   2.40128
 Alpha virt. eigenvalues --    2.40473   2.41027   2.41378   2.41608   2.41906
 Alpha virt. eigenvalues --    2.42392   2.42502   2.43183   2.43431   2.43889
 Alpha virt. eigenvalues --    2.44004   2.44787   2.44859   2.45484   2.46228
 Alpha virt. eigenvalues --    2.46357   2.46688   2.46854   2.46968   2.47134
 Alpha virt. eigenvalues --    2.47862   2.48160   2.48452   2.48559   2.48763
 Alpha virt. eigenvalues --    2.49096   2.49267   2.49480   2.49712   2.49832
 Alpha virt. eigenvalues --    2.50117   2.50428   2.50540   2.50796   2.50891
 Alpha virt. eigenvalues --    2.51195   2.51421   2.51819   2.52193   2.52330
 Alpha virt. eigenvalues --    2.52449   2.52798   2.53026   2.53163   2.53320
 Alpha virt. eigenvalues --    2.53559   2.54184   2.54521   2.54542   2.54742
 Alpha virt. eigenvalues --    2.54805   2.55120   2.55344   2.55749   2.55992
 Alpha virt. eigenvalues --    2.56151   2.56675   2.56915   2.57065   2.57295
 Alpha virt. eigenvalues --    2.57873   2.57927   2.58252   2.58532   2.59097
 Alpha virt. eigenvalues --    2.59174   2.59775   2.60081   2.60662   2.60738
 Alpha virt. eigenvalues --    2.61163   2.61386   2.61712   2.61799   2.62135
 Alpha virt. eigenvalues --    2.62383   2.62969   2.63026   2.63370   2.63514
 Alpha virt. eigenvalues --    2.63955   2.64054   2.64206   2.64620   2.65085
 Alpha virt. eigenvalues --    2.65490   2.65901   2.66184   2.66543   2.67062
 Alpha virt. eigenvalues --    2.67586   2.68030   2.68222   2.68319   2.68824
 Alpha virt. eigenvalues --    2.69179   2.69587   2.69769   2.70367   2.70699
 Alpha virt. eigenvalues --    2.70824   2.71559   2.71767   2.71933   2.72601
 Alpha virt. eigenvalues --    2.72809   2.73523   2.73722   2.74133   2.74188
 Alpha virt. eigenvalues --    2.75148   2.75770   2.76176   2.76549   2.76693
 Alpha virt. eigenvalues --    2.77341   2.77657   2.77836   2.78113   2.78197
 Alpha virt. eigenvalues --    2.78261   2.78520   2.78966   2.79083   2.79333
 Alpha virt. eigenvalues --    2.79615   2.79780   2.80171   2.80494   2.80559
 Alpha virt. eigenvalues --    2.81071   2.81128   2.81284   2.81657   2.82073
 Alpha virt. eigenvalues --    2.82204   2.82837   2.83074   2.83236   2.83649
 Alpha virt. eigenvalues --    2.83810   2.83920   2.83995   2.84197   2.84595
 Alpha virt. eigenvalues --    2.85060   2.85291   2.85786   2.86103   2.86224
 Alpha virt. eigenvalues --    2.86621   2.86703   2.86876   2.87036   2.87526
 Alpha virt. eigenvalues --    2.87699   2.87801   2.87931   2.88198   2.88550
 Alpha virt. eigenvalues --    2.88832   2.89153   2.89497   2.89695   2.89793
 Alpha virt. eigenvalues --    2.90242   2.90453   2.90998   2.91209   2.91356
 Alpha virt. eigenvalues --    2.91573   2.91708   2.92016   2.92248   2.92644
 Alpha virt. eigenvalues --    2.93109   2.93179   2.93296   2.93645   2.93707
 Alpha virt. eigenvalues --    2.93869   2.94277   2.94361   2.94605   2.94905
 Alpha virt. eigenvalues --    2.95061   2.95212   2.95360   2.95431   2.95521
 Alpha virt. eigenvalues --    2.95662   2.95989   2.96176   2.96252   2.96495
 Alpha virt. eigenvalues --    2.96730   2.96950   2.97362   2.97646   2.97877
 Alpha virt. eigenvalues --    2.98084   2.98504   2.98946   2.99405   2.99677
 Alpha virt. eigenvalues --    3.00018   3.00071   3.00192   3.00444   3.01557
 Alpha virt. eigenvalues --    3.01879   3.02154   3.02328   3.02937   3.03428
 Alpha virt. eigenvalues --    3.03993   3.04230   3.05190   3.05490   3.06035
 Alpha virt. eigenvalues --    3.06239   3.06657   3.06737   3.07683   3.08426
 Alpha virt. eigenvalues --    3.08793   3.08943   3.09273   3.09594   3.10119
 Alpha virt. eigenvalues --    3.10233   3.10596   3.11202   3.11301   3.11512
 Alpha virt. eigenvalues --    3.11893   3.12263   3.12450   3.12690   3.13171
 Alpha virt. eigenvalues --    3.13657   3.13816   3.14031   3.14502   3.14676
 Alpha virt. eigenvalues --    3.15377   3.15553   3.15987   3.16623   3.16884
 Alpha virt. eigenvalues --    3.17097   3.17274   3.17436   3.17966   3.18061
 Alpha virt. eigenvalues --    3.19029   3.19989   3.20608   3.20666   3.21276
 Alpha virt. eigenvalues --    3.21469   3.22063   3.22685   3.23099   3.23210
 Alpha virt. eigenvalues --    3.23971   3.24208   3.24673   3.25570   3.25977
 Alpha virt. eigenvalues --    3.26994   3.27103   3.28447   3.28766   3.29396
 Alpha virt. eigenvalues --    3.30515   3.31069   3.31452   3.31752   3.32139
 Alpha virt. eigenvalues --    3.34893   3.34964   3.34990   3.35821   3.35859
 Alpha virt. eigenvalues --    3.36010   3.36148   3.36195   3.36263   3.36731
 Alpha virt. eigenvalues --    3.37007   3.37114   3.37671   3.37754   3.37964
 Alpha virt. eigenvalues --    3.38927   3.39652   3.40503   3.41077   3.42717
 Alpha virt. eigenvalues --    3.42829   3.43913   3.44897   3.45942   3.47330
 Alpha virt. eigenvalues --    3.49550   3.49750   3.51053   3.51180   3.52518
 Alpha virt. eigenvalues --    3.53401   3.55003   3.55418   3.56355   3.56983
 Alpha virt. eigenvalues --    3.57709   3.58288   3.59298   3.59749   3.60208
 Alpha virt. eigenvalues --    3.60599   3.60794   3.61084   3.62076   3.62361
 Alpha virt. eigenvalues --    3.63615   3.64117   3.64509   3.64825   3.65829
 Alpha virt. eigenvalues --    3.66408   3.67832   3.68509   3.70107   3.73437
 Alpha virt. eigenvalues --    3.74626   3.74908   3.75699   3.76759   3.76890
 Alpha virt. eigenvalues --    3.77172   3.77972   3.78130   3.78730   3.78876
 Alpha virt. eigenvalues --    3.79125   3.79369   3.79774   3.79925   3.80065
 Alpha virt. eigenvalues --    3.80397   3.80611   3.80713   3.80920   3.81291
 Alpha virt. eigenvalues --    3.81334   3.81672   3.82015   3.82645   3.82937
 Alpha virt. eigenvalues --    3.82980   3.83794   3.84142   3.84258   3.84286
 Alpha virt. eigenvalues --    3.84755   3.85180   3.85516   3.85730   3.86009
 Alpha virt. eigenvalues --    3.86813   3.87065   3.87546   3.87762   3.88410
 Alpha virt. eigenvalues --    3.88517   3.90284   3.91446   3.94821   3.96349
 Alpha virt. eigenvalues --    3.97413   3.97794   3.98377   3.98961   3.99249
 Alpha virt. eigenvalues --    3.99526   4.00692   4.01349   4.03311   4.05123
 Alpha virt. eigenvalues --    4.05698   4.06090   4.06605   4.07196   4.07625
 Alpha virt. eigenvalues --    4.08656   4.09077   4.10069   4.12250   4.12984
 Alpha virt. eigenvalues --    4.14769   4.14984   4.15571   4.16434   4.16843
 Alpha virt. eigenvalues --    4.20753   4.21192   4.22268   4.23232   4.29464
 Alpha virt. eigenvalues --    4.34549   4.34772   4.71552   4.72955   4.77997
 Alpha virt. eigenvalues --    4.78879   4.79298   4.79646   4.80206   4.81075
 Alpha virt. eigenvalues --    4.81968   4.82303   4.82741   4.85088   4.85947
 Alpha virt. eigenvalues --    4.87954   4.88591   4.88972   4.90687   4.90833
 Alpha virt. eigenvalues --    4.91010   4.92603   4.93489   4.93849   4.94390
 Alpha virt. eigenvalues --    4.94662   4.94813   4.94954   4.95477   4.95564
 Alpha virt. eigenvalues --    4.96522   4.96619   4.96984   4.97199   4.97457
 Alpha virt. eigenvalues --    4.98584   4.98681   4.99889   5.01318   5.01792
 Alpha virt. eigenvalues --    5.03270   5.03937   5.04439   5.05314   5.06011
 Alpha virt. eigenvalues --    5.06669   5.06898   5.07438   5.07543   5.08148
 Alpha virt. eigenvalues --    5.08734   5.08779   5.09941   5.10254   5.10693
 Alpha virt. eigenvalues --    5.11542   5.11876   5.12269   5.12526   5.12812
 Alpha virt. eigenvalues --    5.13291   5.15088   5.15136   5.16135   5.20164
 Alpha virt. eigenvalues --    5.20394   5.22488   5.24221   5.25230   5.27322
 Alpha virt. eigenvalues --    5.29151   5.29581   5.30520   5.31007   5.32900
 Alpha virt. eigenvalues --    5.33977   5.35823   5.36649   5.38708   5.39690
 Alpha virt. eigenvalues --    5.39959   5.45581   5.46863   5.50011   5.51440
 Alpha virt. eigenvalues --    5.60793   5.61687   5.63986   5.67094   5.67600
 Alpha virt. eigenvalues --    5.68221   5.68546   5.68578   5.69305   5.70428
 Alpha virt. eigenvalues --    5.71535   5.71915   5.72062   5.74827   6.09059
 Alpha virt. eigenvalues --    6.11825   6.18354   7.14195   7.18951   7.26779
 Alpha virt. eigenvalues --    8.01672  13.87612  13.94522  14.02315  14.04008
 Alpha virt. eigenvalues --   14.05838  14.12688  14.15535  14.17493  14.18974
 Alpha virt. eigenvalues --   17.34083  17.43023  17.49947  23.55839  23.76740
 Alpha virt. eigenvalues --   23.78649  23.78892  23.79078  23.79792  23.80225
 Alpha virt. eigenvalues --   23.80655  23.80829  23.80980  23.82051  23.82692
 Alpha virt. eigenvalues --   23.83295  23.83756  23.84325  23.84636  23.85185
 Alpha virt. eigenvalues --   23.85397  23.85614  23.86171  23.86761  23.87173
 Alpha virt. eigenvalues --   23.87579  23.90040  23.91791  23.92645  23.92689
 Alpha virt. eigenvalues --   23.93065  23.93202  23.93794  23.94416  23.96444
 Alpha virt. eigenvalues --   23.96844  23.97250  24.10096  24.12010  24.21753
 Alpha virt. eigenvalues --   35.57154  35.59216  35.60340  35.60808  35.61895
 Alpha virt. eigenvalues --   35.62909  35.63357  35.63393  35.64043  35.65603
 Alpha virt. eigenvalues --   49.82620  49.85416  49.87358  49.87538  49.88084
 Alpha virt. eigenvalues --   49.88447  49.90693  49.92232  49.92314  49.93132
 Alpha virt. eigenvalues --   49.93507  49.93530  49.96245  49.96912  49.98737
 Alpha virt. eigenvalues --   49.99769  50.00192  50.00893  50.01689  50.01928
 Alpha virt. eigenvalues --   50.02577  50.02664  50.03475  50.04380  50.06182
 Alpha virt. eigenvalues --  103.43731 163.17861 163.23353 163.30552 189.18466
          Condensed to atoms (all electrons):
 Mulliken charges:
               1
     1  C    0.302028
     2  O   -0.438081
     3  N   -0.429792
     4  C    0.319512
     5  O   -0.419920
     6  H    0.295063
     7  N   -0.431307
     8  C    0.328818
     9  O   -0.448180
    10  H    0.273255
    11  N   -0.421581
    12  C   -0.106148
    13  C    0.346264
    14  O   -0.438681
    15  H    0.311582
    16  H    0.181987
    17  H    0.142718
    18  N   -0.413277
    19  C    0.328202
    20  O   -0.431352
    21  N   -0.379315
    22  H    0.264550
    23  H    0.286052
    24  H    0.362500
    25  H    0.259231
    26  N   -0.428610
    27  C    0.364680
    28  O   -0.437080
    29  O   -0.512863
    30  H    0.332809
    31  H    0.322536
    32  N   -0.377647
    33  C   -0.397255
    34  S   -0.197084
    35  H    0.277822
    36  H    0.160075
    37  H    0.153438
    38  H    0.161986
    39  C   -0.110589
    40  C   -0.102470
    41  C   -0.088557
    42  C   -0.124157
    43  C   -0.117122
    44  C   -0.130836
    45  H    0.094526
    46  H    0.088394
    47  H    0.138614
    48  H    0.097117
    49  H    0.138404
    50  O   -0.458973
    51  N   -0.355639
    52  H    0.255351
    53  C   -0.233862
    54  C    0.375268
    55  N   -0.419755
    56  O   -0.488150
    57  H    0.146255
    58  H    0.147490
    59  H    0.267774
    60  H    0.252178
    61  C    0.283384
    62  N   -0.451384
    63  O   -0.426274
    64  H    0.244978
    65  H    0.257605
    66  P    1.404050
    67  P    1.362410
    68  P    1.319187
    69  C   -0.072510
    70  O   -0.523074
    71  C    0.084381
    72  O   -0.412424
    73  C   -0.053556
    74  O   -0.448607
    75  C    0.033883
    76  O   -0.415923
    77  O   -0.721095
    78  O   -0.773578
    79  O   -0.713372
    80  O   -0.729488
    81  O   -0.778692
    82  O   -0.649876
    83  O   -0.783339
    84  O   -0.706916
    85  O   -0.698098
    86  H    0.249782
    87  H    0.166682
    88  H    0.127378
    89  H    0.277712
    90  H    0.154354
    91  H    0.131982
    92  H    0.168564
    93  Mg   0.922591
    94  O   -0.518758
    95  H    0.321946
    96  H    0.328118
    97  O   -0.580756
    98  H    0.320863
    99  H    0.315748
   100  C   -0.347032
   101  H    0.132077
   102  H    0.122262
   103  H    0.126874
   104  C   -0.236820
   105  H    0.158177
   106  H    0.124954
   107  H    0.131218
   108  C    0.301226
   109  C   -0.302635
   110  H    0.144642
   111  H    0.135559
   112  H    0.122988
   113  C   -0.347662
   114  H    0.122862
   115  H    0.122693
   116  H    0.141273
   117  C   -0.089324
   118  H    0.153126
   119  H    0.141328
   120  C   -0.067739
   121  H    0.149663
   122  H    0.153342
   123  C   -0.081619
   124  H    0.158091
   125  H    0.150098
   126  C    0.007945
   127  H    0.150096
   128  H    0.169728
   129  C   -0.051751
   130  H    0.129476
   131  H    0.126400
   132  C   -0.079947
   133  H    0.153360
   134  C   -0.260400
   135  H    0.115571
   136  H    0.125485
   137  H    0.113663
   138  C    0.032125
   139  H    0.097517
   140  H    0.128538
   141  C   -0.316172
   142  H    0.134751
   143  H    0.116857
   144  H    0.128021
   145  C   -0.167708
   146  H    0.182749
   147  H    0.143141
   148  C   -0.331973
   149  H    0.128226
   150  H    0.125679
   151  H    0.122935
 Sum of Mulliken charges =  -1.00000
 Mulliken charges with hydrogens summed into heavy atoms:
               1
     1  C    0.302028
     2  O   -0.438081
     3  N   -0.134729
     4  C    0.319512
     5  O   -0.419920
     7  N   -0.158052
     8  C    0.328818
     9  O   -0.448180
    11  N   -0.109999
    12  C    0.218557
    13  C    0.346264
    14  O   -0.438681
    18  N   -0.148728
    19  C    0.328202
    20  O   -0.431352
    21  N    0.528466
    26  N   -0.095801
    27  C    0.364680
    28  O   -0.437080
    29  O   -0.190327
    32  N   -0.099825
    33  C   -0.083742
    34  S   -0.035098
    39  C   -0.110589
    40  C   -0.007944
    41  C   -0.000164
    42  C    0.014457
    43  C   -0.020005
    44  C    0.007568
    50  O   -0.458973
    51  N   -0.100289
    53  C    0.059883
    54  C    0.375268
    55  N    0.100198
    56  O   -0.488150
    61  C    0.283384
    62  N    0.051199
    63  O   -0.426274
    66  P    1.404050
    67  P    1.362410
    68  P    1.319187
    69  C    0.228036
    70  O   -0.523074
    71  C    0.211759
    72  O   -0.412424
    73  C    0.113125
    74  O   -0.170896
    75  C    0.188237
    76  O   -0.166141
    77  O   -0.721095
    78  O   -0.773578
    79  O   -0.713372
    80  O   -0.729488
    81  O   -0.778692
    82  O   -0.329013
    83  O   -0.783339
    84  O   -0.706916
    85  O   -0.698098
    93  Mg   0.922591
    94  O    0.131306
    97  O   -0.265008
   100  C    0.034181
   104  C    0.177529
   108  C    0.301226
   109  C    0.100553
   113  C    0.039166
   117  C    0.205130
   120  C    0.235266
   123  C    0.226570
   126  C    0.327769
   129  C    0.204125
   132  C    0.073413
   134  C    0.094318
   138  C    0.258180
   141  C    0.063457
   145  C    0.158182
   148  C    0.044867
 Electronic spatial extent (au):  <R**2>=          85551.4795
 Charge=             -1.0000 electrons
 Dipole moment (field-independent basis, Debye):
    X=            -14.9079    Y=             -9.1379    Z=            -17.9590  Tot=             25.0653
 Quadrupole moment (field-independent basis, Debye-Ang):
   XX=           -596.3602   YY=           -511.7451   ZZ=           -539.5041
   XY=             73.9717   XZ=              3.5356   YZ=             26.3154
 Traceless Quadrupole moment (field-independent basis, Debye-Ang):
   XX=            -47.1571   YY=             37.4580   ZZ=              9.6991
   XY=             73.9717   XZ=              3.5356   YZ=             26.3154
 Octapole moment (field-independent basis, Debye-Ang**2):
  XXX=           -507.3693  YYY=           -478.9537  ZZZ=          -1038.2735  XYY=           -204.3285
  XXY=             20.5792  XXZ=           -310.4589  XZZ=           -416.1981  YZZ=           -280.9247
  YYZ=           -229.1749  XYZ=           -103.1623
 Hexadecapole moment (field-independent basis, Debye-Ang**3):
 XXXX=         -26678.1002 YYYY=         -17747.5723 ZZZZ=         -71087.2675 XXXY=           1612.1290
 XXXZ=          -8320.3657 YYYX=           1815.8582 YYYZ=          -4970.8024 ZZZX=          -6379.0602
 ZZZY=          -2059.8497 XXYY=          -7370.8707 XXZZ=         -17761.7616 YYZZ=         -12712.1430
 XXYZ=          -1855.3759 YYXZ=          -1246.7536 ZZXY=           1641.3912
 N-N= 1.789031131756D+04 E-N=-4.880354389886D+04  KE= 5.491214642917D+03
  Exact polarizability:   0.000   0.000   0.000   0.000   0.000   0.000
 Approx polarizability: 926.976 -25.549 913.057  42.011  22.865 941.043

 This type of calculation cannot be archived.


 If your ship doesn't come in, swim out to it!
                          -- Jonathan Winters
 Job cpu time:      28 days 21 hours 20 minutes 46.7 seconds.
 Elapsed time:       0 days 17 hours 52 minutes 45.7 seconds.
 File lengths (MBytes):  RWF=  45984 Int=      0 D2E=      0 Chk=    402 Scr=      1
 Normal termination of Gaussian 16 at Sun Jun 30 17:17:47 2024.
